HEADER
"PSFversion" "1.00"
"V6n V5n V4n V1n V0n" "analogLib_vdc_spectre"
"I2n" "analogLib_idc_spectre"
"V2n" "analogLib_vsin_spectre"
"C0n" "analogLib_cap_spectre"
"V3n" "analogLib_vpulse_spectre"
"I0n" "ecg_vga3"
