HEADER
"PSFversion" "1.00"
"Time Stamp" "Mar 21 15:48:17 2026"
TYPE
"variable" STRUCT(
"value" FLOAT DOUBLE
) PROP( "key" "element" )
VALUE
"VDD" "variable" ( 3.63 ) PROP( )
"S2" "variable" ( 3.3 ) PROP( )
"S1" "variable" ( 3.3 ) PROP( )
"S0" "variable" ( 3.3 ) PROP( )
"VIN_STEP" "variable" ( 10e-3 ) PROP( )
"VIN_AMP" "variable" ( 0 ) PROP( )
"VIN_FREQ" "variable" ( 1e3 ) PROP( )
"temperature" "variable" ( -40 ) PROP( )
"temp" "variable" ( -40 ) PROP( )
END
