HEADER
"PSFversion" "1.00"
"V9n V8n V5n V2n V0n" "analogLib_vdc_spectre"
"R0n" "analogLib_res_spectre"
"V7n" "analogLib_vsin_spectre"
