HEADER
"PSFversion" "1.00"
"VINPv" "\:VINPv"
"VINNv" "\:VINNv"
"VOUTv" "\:VOUTv"
"VDDAv" "\:VDDAv"
"GNDAv" "\:GNDAv"
"ENv" "\:ENv"
"BIASv" "\:BIASv"
"VCTRLv" "\:VCTRLv"
