HEADER
"PSFversion" "1.00"
"design" "(\"VGA\" \"VGA_1_tb\" \"schematic\" \"\")"
"simulator" "spectre"
"temperature" "27"
"host" ""
"date" "Mar 22 13:47:18 2026"
"title" ""
"analysisList" "()"
END
