HEADER
"PSFversion" "1.00"
"design" "(\"VGA\" \"VGA_bias_step\" \"schematic\" \"\")"
"simulator" "spectre"
"temperature" "27"
"host" ""
"date" "Mar 17 08:40:01 2026"
"title" ""
"analysisList" "()"
END
