HEADER
"PSFversion" "1.00"
"design" "(\"VGA\" \"VGA_IDEAL\" \"schematic\" \"\")"
"simulator" "spectre"
"temperature" "27"
"host" ""
"date" "Mar 16 09:04:15 2026"
"title" ""
"analysisList" "()"
END
