HEADER
"PSFversion" "1.00"
"design" "(\"CHARACTERIZATION\" \"SELF_CMOS\" \"schematic\" \"\")"
"simulator" "spectre"
"temperature" "27"
"host" ""
"date" "Mar 16 17:42:47 2026"
"title" ""
"analysisList" "()"
END
