HEADER
"PSFversion" "1.00"
"Time Stamp" "Mar 17 10:12:57 2026"
TYPE
"variable" STRUCT(
"value" FLOAT DOUBLE
) PROP( "key" "element" )
VALUE
"VIN" "variable" ( 0 ) PROP( )
"temp" "variable" ( 27 ) PROP( )
END
