HEADER
"PSFversion" "1.00"
"design" "(\"VGA\" \"VGA_1_wakeup_tb\" \"schematic\" \"\")"
"simulator" "spectre"
"temperature" "-40"
"host" ""
"date" "Apr 15 16:43:44 2026"
"title" ""
"analysisList" "()"
END
