HEADER
"PSFversion" "1.00"
"Log Generator" "drlLog rev. 1.0"
"Log Time Stamp" "Thu Apr 16 09:36:37 2026"
"psfversion" "1.4.0"
"simulator" "spectre"
"version" "24.1.0.288.isr5"
"date" "9:36:37 AM, Thur Apr 16, 2026"
"design" "// Point Netlist Generated on: Apr 16 09:36:35 2026"
"signalNameType" "spectre"
"simMode" "APS"
"measdgt" 0
"ingold" 2
"sst2usecolon" 0
TYPE
"analysisInst" STRUCT(
"analysisType" STRING *
"dataFile" STRING *
"format" STRING *
"parent" STRING *
"sweepVariable" ARRAY ( * ) STRING *
"description" STRING *
)
VALUE
"mc1_tran-montecarlo" "analysisInst" (
"montecarlo"
"mc1_tran.montecarlo"
"PSF"
""
("iteration")
"Monte Carlo parent"
)
"mc1_finalTimeOP-montecarlo" "analysisInst" (
"montecarlo"
"mc1_finalTimeOP.montecarlo"
"PSF"
""
("iteration")
"Monte Carlo parent"
)
"mc1_modelParameter-montecarlo" "analysisInst" (
"montecarlo"
"mc1_modelParameter.montecarlo"
"PSF"
""
("iteration")
"Monte Carlo parent"
)
"mc1_element-montecarlo" "analysisInst" (
"montecarlo"
"mc1_element.montecarlo"
"PSF"
""
("iteration")
"Monte Carlo parent"
)
"mc1_outputParameter-montecarlo" "analysisInst" (
"montecarlo"
"mc1_outputParameter.montecarlo"
"PSF"
""
("iteration")
"Monte Carlo parent"
)
"mc1_designParamVals-montecarlo" "analysisInst" (
"montecarlo"
"mc1_designParamVals.montecarlo"
"PSF"
""
("iteration")
"Monte Carlo parent"
)
"mc1_primitives-montecarlo" "analysisInst" (
"montecarlo"
"mc1_primitives.montecarlo"
"PSF"
""
("iteration")
"Monte Carlo parent"
)
"mc1_subckts-montecarlo" "analysisInst" (
"montecarlo"
"mc1_subckts.montecarlo"
"PSF"
""
("iteration")
"Monte Carlo parent"
)
"mc1_separate_051_tran-tran" "analysisInst" (
"tran"
"mc1_separate/051/tran.tran.tran"
"PSF"
"mc1_tran-montecarlo"
("time")
"Transient Analysis `tran': time = (0 s -> 50 s)"
) PROP(
"data_type" "swept_scalar"
"sweep_tree_type" "leafNode"
"iteration" 51.0000
)

"mc1_separate_051_finalTimeOP-info" "analysisInst" (
"info"
"mc1_separate/051/finalTimeOP.info"
"PSF"
"mc1_finalTimeOP-montecarlo"
()
"Circuit Information"
) PROP(
"data_type" "struct"
"sweep_tree_type" "leafNode"
"iteration" 51.0000
)

"mc1_separate_051_modelParameter-info" "analysisInst" (
"info"
"mc1_separate/051/modelParameter.info"
"PSF"
"mc1_modelParameter-montecarlo"
()
"Circuit Information"
) PROP(
"data_type" "struct"
"sweep_tree_type" "leafNode"
"iteration" 51.0000
)

"mc1_separate_051_element-info" "analysisInst" (
"info"
"mc1_separate/051/element.info"
"PSF"
"mc1_element-montecarlo"
()
"Circuit Information"
) PROP(
"data_type" "struct"
"sweep_tree_type" "leafNode"
"iteration" 51.0000
)

"mc1_separate_051_outputParameter-info" "analysisInst" (
"info"
"mc1_separate/051/outputParameter.info"
"PSF"
"mc1_outputParameter-montecarlo"
()
"Circuit Information"
) PROP(
"data_type" "struct"
"sweep_tree_type" "leafNode"
"iteration" 51.0000
)

"mc1_separate_051_designParamVals-info" "analysisInst" (
"info"
"mc1_separate/051/designParamVals.info"
"PSF"
"mc1_designParamVals-montecarlo"
()
"Circuit Information"
) PROP(
"data_type" "struct"
"sweep_tree_type" "leafNode"
"iteration" 51.0000
)

"mc1_separate_051_primitives-info.primitives" "analysisInst" (
"info.primitives"
"mc1_separate/051/primitives.info.primitives"
"PSF"
"mc1_primitives-montecarlo"
()
"Circuit Information"
) PROP(
"sweep_tree_type" "leafNode"
"iteration" 51.0000
)

"mc1_separate_051_subckts-info.subckts" "analysisInst" (
"info.subckts"
"mc1_separate/051/subckts.info.subckts"
"PSF"
"mc1_subckts-montecarlo"
()
"Circuit Information"
) PROP(
"sweep_tree_type" "leafNode"
"iteration" 51.0000
)

"mc1_separate_052_tran-tran" "analysisInst" (
"tran"
"mc1_separate/052/tran.tran.tran"
"PSF"
"mc1_tran-montecarlo"
("time")
"Transient Analysis `tran': time = (0 s -> 50 s)"
) PROP(
"data_type" "swept_scalar"
"sweep_tree_type" "leafNode"
"iteration" 52.0000
)

"mc1_separate_052_finalTimeOP-info" "analysisInst" (
"info"
"mc1_separate/052/finalTimeOP.info"
"PSF"
"mc1_finalTimeOP-montecarlo"
()
"Circuit Information"
) PROP(
"data_type" "struct"
"sweep_tree_type" "leafNode"
"iteration" 52.0000
)

"mc1_separate_052_modelParameter-info" "analysisInst" (
"info"
"mc1_separate/052/modelParameter.info"
"PSF"
"mc1_modelParameter-montecarlo"
()
"Circuit Information"
) PROP(
"data_type" "struct"
"sweep_tree_type" "leafNode"
"iteration" 52.0000
)

"mc1_separate_052_element-info" "analysisInst" (
"info"
"mc1_separate/052/element.info"
"PSF"
"mc1_element-montecarlo"
()
"Circuit Information"
) PROP(
"data_type" "struct"
"sweep_tree_type" "leafNode"
"iteration" 52.0000
)

"mc1_separate_052_outputParameter-info" "analysisInst" (
"info"
"mc1_separate/052/outputParameter.info"
"PSF"
"mc1_outputParameter-montecarlo"
()
"Circuit Information"
) PROP(
"data_type" "struct"
"sweep_tree_type" "leafNode"
"iteration" 52.0000
)

"mc1_separate_052_designParamVals-info" "analysisInst" (
"info"
"mc1_separate/052/designParamVals.info"
"PSF"
"mc1_designParamVals-montecarlo"
()
"Circuit Information"
) PROP(
"data_type" "struct"
"sweep_tree_type" "leafNode"
"iteration" 52.0000
)

"mc1_separate_052_primitives-info.primitives" "analysisInst" (
"info.primitives"
"mc1_separate/052/primitives.info.primitives"
"PSF"
"mc1_primitives-montecarlo"
()
"Circuit Information"
) PROP(
"sweep_tree_type" "leafNode"
"iteration" 52.0000
)

"mc1_separate_052_subckts-info.subckts" "analysisInst" (
"info.subckts"
"mc1_separate/052/subckts.info.subckts"
"PSF"
"mc1_subckts-montecarlo"
()
"Circuit Information"
) PROP(
"sweep_tree_type" "leafNode"
"iteration" 52.0000
)

"mc1_separate_053_tran-tran" "analysisInst" (
"tran"
"mc1_separate/053/tran.tran.tran"
"PSF"
"mc1_tran-montecarlo"
("time")
"Transient Analysis `tran': time = (0 s -> 50 s)"
) PROP(
"data_type" "swept_scalar"
"sweep_tree_type" "leafNode"
"iteration" 53.0000
)

"mc1_separate_053_finalTimeOP-info" "analysisInst" (
"info"
"mc1_separate/053/finalTimeOP.info"
"PSF"
"mc1_finalTimeOP-montecarlo"
()
"Circuit Information"
) PROP(
"data_type" "struct"
"sweep_tree_type" "leafNode"
"iteration" 53.0000
)

"mc1_separate_053_modelParameter-info" "analysisInst" (
"info"
"mc1_separate/053/modelParameter.info"
"PSF"
"mc1_modelParameter-montecarlo"
()
"Circuit Information"
) PROP(
"data_type" "struct"
"sweep_tree_type" "leafNode"
"iteration" 53.0000
)

"mc1_separate_053_element-info" "analysisInst" (
"info"
"mc1_separate/053/element.info"
"PSF"
"mc1_element-montecarlo"
()
"Circuit Information"
) PROP(
"data_type" "struct"
"sweep_tree_type" "leafNode"
"iteration" 53.0000
)

"mc1_separate_053_outputParameter-info" "analysisInst" (
"info"
"mc1_separate/053/outputParameter.info"
"PSF"
"mc1_outputParameter-montecarlo"
()
"Circuit Information"
) PROP(
"data_type" "struct"
"sweep_tree_type" "leafNode"
"iteration" 53.0000
)

"mc1_separate_053_designParamVals-info" "analysisInst" (
"info"
"mc1_separate/053/designParamVals.info"
"PSF"
"mc1_designParamVals-montecarlo"
()
"Circuit Information"
) PROP(
"data_type" "struct"
"sweep_tree_type" "leafNode"
"iteration" 53.0000
)

"mc1_separate_053_primitives-info.primitives" "analysisInst" (
"info.primitives"
"mc1_separate/053/primitives.info.primitives"
"PSF"
"mc1_primitives-montecarlo"
()
"Circuit Information"
) PROP(
"sweep_tree_type" "leafNode"
"iteration" 53.0000
)

"mc1_separate_053_subckts-info.subckts" "analysisInst" (
"info.subckts"
"mc1_separate/053/subckts.info.subckts"
"PSF"
"mc1_subckts-montecarlo"
()
"Circuit Information"
) PROP(
"sweep_tree_type" "leafNode"
"iteration" 53.0000
)

"mc1_separate_054_tran-tran" "analysisInst" (
"tran"
"mc1_separate/054/tran.tran.tran"
"PSF"
"mc1_tran-montecarlo"
("time")
"Transient Analysis `tran': time = (0 s -> 50 s)"
) PROP(
"data_type" "swept_scalar"
"sweep_tree_type" "leafNode"
"iteration" 54.0000
)

"mc1_separate_054_finalTimeOP-info" "analysisInst" (
"info"
"mc1_separate/054/finalTimeOP.info"
"PSF"
"mc1_finalTimeOP-montecarlo"
()
"Circuit Information"
) PROP(
"data_type" "struct"
"sweep_tree_type" "leafNode"
"iteration" 54.0000
)

"mc1_separate_054_modelParameter-info" "analysisInst" (
"info"
"mc1_separate/054/modelParameter.info"
"PSF"
"mc1_modelParameter-montecarlo"
()
"Circuit Information"
) PROP(
"data_type" "struct"
"sweep_tree_type" "leafNode"
"iteration" 54.0000
)

"mc1_separate_054_element-info" "analysisInst" (
"info"
"mc1_separate/054/element.info"
"PSF"
"mc1_element-montecarlo"
()
"Circuit Information"
) PROP(
"data_type" "struct"
"sweep_tree_type" "leafNode"
"iteration" 54.0000
)

"mc1_separate_054_outputParameter-info" "analysisInst" (
"info"
"mc1_separate/054/outputParameter.info"
"PSF"
"mc1_outputParameter-montecarlo"
()
"Circuit Information"
) PROP(
"data_type" "struct"
"sweep_tree_type" "leafNode"
"iteration" 54.0000
)

"mc1_separate_054_designParamVals-info" "analysisInst" (
"info"
"mc1_separate/054/designParamVals.info"
"PSF"
"mc1_designParamVals-montecarlo"
()
"Circuit Information"
) PROP(
"data_type" "struct"
"sweep_tree_type" "leafNode"
"iteration" 54.0000
)

"mc1_separate_054_primitives-info.primitives" "analysisInst" (
"info.primitives"
"mc1_separate/054/primitives.info.primitives"
"PSF"
"mc1_primitives-montecarlo"
()
"Circuit Information"
) PROP(
"sweep_tree_type" "leafNode"
"iteration" 54.0000
)

"mc1_separate_054_subckts-info.subckts" "analysisInst" (
"info.subckts"
"mc1_separate/054/subckts.info.subckts"
"PSF"
"mc1_subckts-montecarlo"
()
"Circuit Information"
) PROP(
"sweep_tree_type" "leafNode"
"iteration" 54.0000
)

"mc1_separate_055_tran-tran" "analysisInst" (
"tran"
"mc1_separate/055/tran.tran.tran"
"PSF"
"mc1_tran-montecarlo"
("time")
"Transient Analysis `tran': time = (0 s -> 50 s)"
) PROP(
"data_type" "swept_scalar"
"sweep_tree_type" "leafNode"
"iteration" 55.0000
)

"mc1_separate_055_finalTimeOP-info" "analysisInst" (
"info"
"mc1_separate/055/finalTimeOP.info"
"PSF"
"mc1_finalTimeOP-montecarlo"
()
"Circuit Information"
) PROP(
"data_type" "struct"
"sweep_tree_type" "leafNode"
"iteration" 55.0000
)

"mc1_separate_055_modelParameter-info" "analysisInst" (
"info"
"mc1_separate/055/modelParameter.info"
"PSF"
"mc1_modelParameter-montecarlo"
()
"Circuit Information"
) PROP(
"data_type" "struct"
"sweep_tree_type" "leafNode"
"iteration" 55.0000
)

"mc1_separate_055_element-info" "analysisInst" (
"info"
"mc1_separate/055/element.info"
"PSF"
"mc1_element-montecarlo"
()
"Circuit Information"
) PROP(
"data_type" "struct"
"sweep_tree_type" "leafNode"
"iteration" 55.0000
)

"mc1_separate_055_outputParameter-info" "analysisInst" (
"info"
"mc1_separate/055/outputParameter.info"
"PSF"
"mc1_outputParameter-montecarlo"
()
"Circuit Information"
) PROP(
"data_type" "struct"
"sweep_tree_type" "leafNode"
"iteration" 55.0000
)

"mc1_separate_055_designParamVals-info" "analysisInst" (
"info"
"mc1_separate/055/designParamVals.info"
"PSF"
"mc1_designParamVals-montecarlo"
()
"Circuit Information"
) PROP(
"data_type" "struct"
"sweep_tree_type" "leafNode"
"iteration" 55.0000
)

"mc1_separate_055_primitives-info.primitives" "analysisInst" (
"info.primitives"
"mc1_separate/055/primitives.info.primitives"
"PSF"
"mc1_primitives-montecarlo"
()
"Circuit Information"
) PROP(
"sweep_tree_type" "leafNode"
"iteration" 55.0000
)

"mc1_separate_055_subckts-info.subckts" "analysisInst" (
"info.subckts"
"mc1_separate/055/subckts.info.subckts"
"PSF"
"mc1_subckts-montecarlo"
()
"Circuit Information"
) PROP(
"sweep_tree_type" "leafNode"
"iteration" 55.0000
)

"mc1_separate_056_tran-tran" "analysisInst" (
"tran"
"mc1_separate/056/tran.tran.tran"
"PSF"
"mc1_tran-montecarlo"
("time")
"Transient Analysis `tran': time = (0 s -> 50 s)"
) PROP(
"data_type" "swept_scalar"
"sweep_tree_type" "leafNode"
"iteration" 56.0000
)

"mc1_separate_056_finalTimeOP-info" "analysisInst" (
"info"
"mc1_separate/056/finalTimeOP.info"
"PSF"
"mc1_finalTimeOP-montecarlo"
()
"Circuit Information"
) PROP(
"data_type" "struct"
"sweep_tree_type" "leafNode"
"iteration" 56.0000
)

"mc1_separate_056_modelParameter-info" "analysisInst" (
"info"
"mc1_separate/056/modelParameter.info"
"PSF"
"mc1_modelParameter-montecarlo"
()
"Circuit Information"
) PROP(
"data_type" "struct"
"sweep_tree_type" "leafNode"
"iteration" 56.0000
)

"mc1_separate_056_element-info" "analysisInst" (
"info"
"mc1_separate/056/element.info"
"PSF"
"mc1_element-montecarlo"
()
"Circuit Information"
) PROP(
"data_type" "struct"
"sweep_tree_type" "leafNode"
"iteration" 56.0000
)

"mc1_separate_056_outputParameter-info" "analysisInst" (
"info"
"mc1_separate/056/outputParameter.info"
"PSF"
"mc1_outputParameter-montecarlo"
()
"Circuit Information"
) PROP(
"data_type" "struct"
"sweep_tree_type" "leafNode"
"iteration" 56.0000
)

"mc1_separate_056_designParamVals-info" "analysisInst" (
"info"
"mc1_separate/056/designParamVals.info"
"PSF"
"mc1_designParamVals-montecarlo"
()
"Circuit Information"
) PROP(
"data_type" "struct"
"sweep_tree_type" "leafNode"
"iteration" 56.0000
)

"mc1_separate_056_primitives-info.primitives" "analysisInst" (
"info.primitives"
"mc1_separate/056/primitives.info.primitives"
"PSF"
"mc1_primitives-montecarlo"
()
"Circuit Information"
) PROP(
"sweep_tree_type" "leafNode"
"iteration" 56.0000
)

"mc1_separate_056_subckts-info.subckts" "analysisInst" (
"info.subckts"
"mc1_separate/056/subckts.info.subckts"
"PSF"
"mc1_subckts-montecarlo"
()
"Circuit Information"
) PROP(
"sweep_tree_type" "leafNode"
"iteration" 56.0000
)

"mc1_separate_057_tran-tran" "analysisInst" (
"tran"
"mc1_separate/057/tran.tran.tran"
"PSF"
"mc1_tran-montecarlo"
("time")
"Transient Analysis `tran': time = (0 s -> 50 s)"
) PROP(
"data_type" "swept_scalar"
"sweep_tree_type" "leafNode"
"iteration" 57.0000
)

"mc1_separate_057_finalTimeOP-info" "analysisInst" (
"info"
"mc1_separate/057/finalTimeOP.info"
"PSF"
"mc1_finalTimeOP-montecarlo"
()
"Circuit Information"
) PROP(
"data_type" "struct"
"sweep_tree_type" "leafNode"
"iteration" 57.0000
)

"mc1_separate_057_modelParameter-info" "analysisInst" (
"info"
"mc1_separate/057/modelParameter.info"
"PSF"
"mc1_modelParameter-montecarlo"
()
"Circuit Information"
) PROP(
"data_type" "struct"
"sweep_tree_type" "leafNode"
"iteration" 57.0000
)

"mc1_separate_057_element-info" "analysisInst" (
"info"
"mc1_separate/057/element.info"
"PSF"
"mc1_element-montecarlo"
()
"Circuit Information"
) PROP(
"data_type" "struct"
"sweep_tree_type" "leafNode"
"iteration" 57.0000
)

"mc1_separate_057_outputParameter-info" "analysisInst" (
"info"
"mc1_separate/057/outputParameter.info"
"PSF"
"mc1_outputParameter-montecarlo"
()
"Circuit Information"
) PROP(
"data_type" "struct"
"sweep_tree_type" "leafNode"
"iteration" 57.0000
)

"mc1_separate_057_designParamVals-info" "analysisInst" (
"info"
"mc1_separate/057/designParamVals.info"
"PSF"
"mc1_designParamVals-montecarlo"
()
"Circuit Information"
) PROP(
"data_type" "struct"
"sweep_tree_type" "leafNode"
"iteration" 57.0000
)

"mc1_separate_057_primitives-info.primitives" "analysisInst" (
"info.primitives"
"mc1_separate/057/primitives.info.primitives"
"PSF"
"mc1_primitives-montecarlo"
()
"Circuit Information"
) PROP(
"sweep_tree_type" "leafNode"
"iteration" 57.0000
)

"mc1_separate_057_subckts-info.subckts" "analysisInst" (
"info.subckts"
"mc1_separate/057/subckts.info.subckts"
"PSF"
"mc1_subckts-montecarlo"
()
"Circuit Information"
) PROP(
"sweep_tree_type" "leafNode"
"iteration" 57.0000
)

"mc1_separate_058_tran-tran" "analysisInst" (
"tran"
"mc1_separate/058/tran.tran.tran"
"PSF"
"mc1_tran-montecarlo"
("time")
"Transient Analysis `tran': time = (0 s -> 50 s)"
) PROP(
"data_type" "swept_scalar"
"sweep_tree_type" "leafNode"
"iteration" 58.0000
)

"mc1_separate_058_finalTimeOP-info" "analysisInst" (
"info"
"mc1_separate/058/finalTimeOP.info"
"PSF"
"mc1_finalTimeOP-montecarlo"
()
"Circuit Information"
) PROP(
"data_type" "struct"
"sweep_tree_type" "leafNode"
"iteration" 58.0000
)

"mc1_separate_058_modelParameter-info" "analysisInst" (
"info"
"mc1_separate/058/modelParameter.info"
"PSF"
"mc1_modelParameter-montecarlo"
()
"Circuit Information"
) PROP(
"data_type" "struct"
"sweep_tree_type" "leafNode"
"iteration" 58.0000
)

"mc1_separate_058_element-info" "analysisInst" (
"info"
"mc1_separate/058/element.info"
"PSF"
"mc1_element-montecarlo"
()
"Circuit Information"
) PROP(
"data_type" "struct"
"sweep_tree_type" "leafNode"
"iteration" 58.0000
)

"mc1_separate_058_outputParameter-info" "analysisInst" (
"info"
"mc1_separate/058/outputParameter.info"
"PSF"
"mc1_outputParameter-montecarlo"
()
"Circuit Information"
) PROP(
"data_type" "struct"
"sweep_tree_type" "leafNode"
"iteration" 58.0000
)

"mc1_separate_058_designParamVals-info" "analysisInst" (
"info"
"mc1_separate/058/designParamVals.info"
"PSF"
"mc1_designParamVals-montecarlo"
()
"Circuit Information"
) PROP(
"data_type" "struct"
"sweep_tree_type" "leafNode"
"iteration" 58.0000
)

"mc1_separate_058_primitives-info.primitives" "analysisInst" (
"info.primitives"
"mc1_separate/058/primitives.info.primitives"
"PSF"
"mc1_primitives-montecarlo"
()
"Circuit Information"
) PROP(
"sweep_tree_type" "leafNode"
"iteration" 58.0000
)

"mc1_separate_058_subckts-info.subckts" "analysisInst" (
"info.subckts"
"mc1_separate/058/subckts.info.subckts"
"PSF"
"mc1_subckts-montecarlo"
()
"Circuit Information"
) PROP(
"sweep_tree_type" "leafNode"
"iteration" 58.0000
)

"mc1_separate_059_tran-tran" "analysisInst" (
"tran"
"mc1_separate/059/tran.tran.tran"
"PSF"
"mc1_tran-montecarlo"
("time")
"Transient Analysis `tran': time = (0 s -> 50 s)"
) PROP(
"data_type" "swept_scalar"
"sweep_tree_type" "leafNode"
"iteration" 59.0000
)

"mc1_separate_059_finalTimeOP-info" "analysisInst" (
"info"
"mc1_separate/059/finalTimeOP.info"
"PSF"
"mc1_finalTimeOP-montecarlo"
()
"Circuit Information"
) PROP(
"data_type" "struct"
"sweep_tree_type" "leafNode"
"iteration" 59.0000
)

"mc1_separate_059_modelParameter-info" "analysisInst" (
"info"
"mc1_separate/059/modelParameter.info"
"PSF"
"mc1_modelParameter-montecarlo"
()
"Circuit Information"
) PROP(
"data_type" "struct"
"sweep_tree_type" "leafNode"
"iteration" 59.0000
)

"mc1_separate_059_element-info" "analysisInst" (
"info"
"mc1_separate/059/element.info"
"PSF"
"mc1_element-montecarlo"
()
"Circuit Information"
) PROP(
"data_type" "struct"
"sweep_tree_type" "leafNode"
"iteration" 59.0000
)

"mc1_separate_059_outputParameter-info" "analysisInst" (
"info"
"mc1_separate/059/outputParameter.info"
"PSF"
"mc1_outputParameter-montecarlo"
()
"Circuit Information"
) PROP(
"data_type" "struct"
"sweep_tree_type" "leafNode"
"iteration" 59.0000
)

"mc1_separate_059_designParamVals-info" "analysisInst" (
"info"
"mc1_separate/059/designParamVals.info"
"PSF"
"mc1_designParamVals-montecarlo"
()
"Circuit Information"
) PROP(
"data_type" "struct"
"sweep_tree_type" "leafNode"
"iteration" 59.0000
)

"mc1_separate_059_primitives-info.primitives" "analysisInst" (
"info.primitives"
"mc1_separate/059/primitives.info.primitives"
"PSF"
"mc1_primitives-montecarlo"
()
"Circuit Information"
) PROP(
"sweep_tree_type" "leafNode"
"iteration" 59.0000
)

"mc1_separate_059_subckts-info.subckts" "analysisInst" (
"info.subckts"
"mc1_separate/059/subckts.info.subckts"
"PSF"
"mc1_subckts-montecarlo"
()
"Circuit Information"
) PROP(
"sweep_tree_type" "leafNode"
"iteration" 59.0000
)

"mc1_separate_060_tran-tran" "analysisInst" (
"tran"
"mc1_separate/060/tran.tran.tran"
"PSF"
"mc1_tran-montecarlo"
("time")
"Transient Analysis `tran': time = (0 s -> 50 s)"
) PROP(
"data_type" "swept_scalar"
"sweep_tree_type" "leafNode"
"iteration" 60.0000
)

"mc1_separate_060_finalTimeOP-info" "analysisInst" (
"info"
"mc1_separate/060/finalTimeOP.info"
"PSF"
"mc1_finalTimeOP-montecarlo"
()
"Circuit Information"
) PROP(
"data_type" "struct"
"sweep_tree_type" "leafNode"
"iteration" 60.0000
)

"mc1_separate_060_modelParameter-info" "analysisInst" (
"info"
"mc1_separate/060/modelParameter.info"
"PSF"
"mc1_modelParameter-montecarlo"
()
"Circuit Information"
) PROP(
"data_type" "struct"
"sweep_tree_type" "leafNode"
"iteration" 60.0000
)

"mc1_separate_060_element-info" "analysisInst" (
"info"
"mc1_separate/060/element.info"
"PSF"
"mc1_element-montecarlo"
()
"Circuit Information"
) PROP(
"data_type" "struct"
"sweep_tree_type" "leafNode"
"iteration" 60.0000
)

"mc1_separate_060_outputParameter-info" "analysisInst" (
"info"
"mc1_separate/060/outputParameter.info"
"PSF"
"mc1_outputParameter-montecarlo"
()
"Circuit Information"
) PROP(
"data_type" "struct"
"sweep_tree_type" "leafNode"
"iteration" 60.0000
)

"mc1_separate_060_designParamVals-info" "analysisInst" (
"info"
"mc1_separate/060/designParamVals.info"
"PSF"
"mc1_designParamVals-montecarlo"
()
"Circuit Information"
) PROP(
"data_type" "struct"
"sweep_tree_type" "leafNode"
"iteration" 60.0000
)

"mc1_separate_060_primitives-info.primitives" "analysisInst" (
"info.primitives"
"mc1_separate/060/primitives.info.primitives"
"PSF"
"mc1_primitives-montecarlo"
()
"Circuit Information"
) PROP(
"sweep_tree_type" "leafNode"
"iteration" 60.0000
)

"mc1_separate_060_subckts-info.subckts" "analysisInst" (
"info.subckts"
"mc1_separate/060/subckts.info.subckts"
"PSF"
"mc1_subckts-montecarlo"
()
"Circuit Information"
) PROP(
"sweep_tree_type" "leafNode"
"iteration" 60.0000
)

"mc1_separate_061_tran-tran" "analysisInst" (
"tran"
"mc1_separate/061/tran.tran.tran"
"PSF"
"mc1_tran-montecarlo"
("time")
"Transient Analysis `tran': time = (0 s -> 50 s)"
) PROP(
"data_type" "swept_scalar"
"sweep_tree_type" "leafNode"
"iteration" 61.0000
)

"mc1_separate_061_finalTimeOP-info" "analysisInst" (
"info"
"mc1_separate/061/finalTimeOP.info"
"PSF"
"mc1_finalTimeOP-montecarlo"
()
"Circuit Information"
) PROP(
"data_type" "struct"
"sweep_tree_type" "leafNode"
"iteration" 61.0000
)

"mc1_separate_061_modelParameter-info" "analysisInst" (
"info"
"mc1_separate/061/modelParameter.info"
"PSF"
"mc1_modelParameter-montecarlo"
()
"Circuit Information"
) PROP(
"data_type" "struct"
"sweep_tree_type" "leafNode"
"iteration" 61.0000
)

"mc1_separate_061_element-info" "analysisInst" (
"info"
"mc1_separate/061/element.info"
"PSF"
"mc1_element-montecarlo"
()
"Circuit Information"
) PROP(
"data_type" "struct"
"sweep_tree_type" "leafNode"
"iteration" 61.0000
)

"mc1_separate_061_outputParameter-info" "analysisInst" (
"info"
"mc1_separate/061/outputParameter.info"
"PSF"
"mc1_outputParameter-montecarlo"
()
"Circuit Information"
) PROP(
"data_type" "struct"
"sweep_tree_type" "leafNode"
"iteration" 61.0000
)

"mc1_separate_061_designParamVals-info" "analysisInst" (
"info"
"mc1_separate/061/designParamVals.info"
"PSF"
"mc1_designParamVals-montecarlo"
()
"Circuit Information"
) PROP(
"data_type" "struct"
"sweep_tree_type" "leafNode"
"iteration" 61.0000
)

"mc1_separate_061_primitives-info.primitives" "analysisInst" (
"info.primitives"
"mc1_separate/061/primitives.info.primitives"
"PSF"
"mc1_primitives-montecarlo"
()
"Circuit Information"
) PROP(
"sweep_tree_type" "leafNode"
"iteration" 61.0000
)

"mc1_separate_061_subckts-info.subckts" "analysisInst" (
"info.subckts"
"mc1_separate/061/subckts.info.subckts"
"PSF"
"mc1_subckts-montecarlo"
()
"Circuit Information"
) PROP(
"sweep_tree_type" "leafNode"
"iteration" 61.0000
)

"mc1_separate_062_tran-tran" "analysisInst" (
"tran"
"mc1_separate/062/tran.tran.tran"
"PSF"
"mc1_tran-montecarlo"
("time")
"Transient Analysis `tran': time = (0 s -> 50 s)"
) PROP(
"data_type" "swept_scalar"
"sweep_tree_type" "leafNode"
"iteration" 62.0000
)

"mc1_separate_062_finalTimeOP-info" "analysisInst" (
"info"
"mc1_separate/062/finalTimeOP.info"
"PSF"
"mc1_finalTimeOP-montecarlo"
()
"Circuit Information"
) PROP(
"data_type" "struct"
"sweep_tree_type" "leafNode"
"iteration" 62.0000
)

"mc1_separate_062_modelParameter-info" "analysisInst" (
"info"
"mc1_separate/062/modelParameter.info"
"PSF"
"mc1_modelParameter-montecarlo"
()
"Circuit Information"
) PROP(
"data_type" "struct"
"sweep_tree_type" "leafNode"
"iteration" 62.0000
)

"mc1_separate_062_element-info" "analysisInst" (
"info"
"mc1_separate/062/element.info"
"PSF"
"mc1_element-montecarlo"
()
"Circuit Information"
) PROP(
"data_type" "struct"
"sweep_tree_type" "leafNode"
"iteration" 62.0000
)

"mc1_separate_062_outputParameter-info" "analysisInst" (
"info"
"mc1_separate/062/outputParameter.info"
"PSF"
"mc1_outputParameter-montecarlo"
()
"Circuit Information"
) PROP(
"data_type" "struct"
"sweep_tree_type" "leafNode"
"iteration" 62.0000
)

"mc1_separate_062_designParamVals-info" "analysisInst" (
"info"
"mc1_separate/062/designParamVals.info"
"PSF"
"mc1_designParamVals-montecarlo"
()
"Circuit Information"
) PROP(
"data_type" "struct"
"sweep_tree_type" "leafNode"
"iteration" 62.0000
)

"mc1_separate_062_primitives-info.primitives" "analysisInst" (
"info.primitives"
"mc1_separate/062/primitives.info.primitives"
"PSF"
"mc1_primitives-montecarlo"
()
"Circuit Information"
) PROP(
"sweep_tree_type" "leafNode"
"iteration" 62.0000
)

"mc1_separate_062_subckts-info.subckts" "analysisInst" (
"info.subckts"
"mc1_separate/062/subckts.info.subckts"
"PSF"
"mc1_subckts-montecarlo"
()
"Circuit Information"
) PROP(
"sweep_tree_type" "leafNode"
"iteration" 62.0000
)

"mc1_separate_063_tran-tran" "analysisInst" (
"tran"
"mc1_separate/063/tran.tran.tran"
"PSF"
"mc1_tran-montecarlo"
("time")
"Transient Analysis `tran': time = (0 s -> 50 s)"
) PROP(
"data_type" "swept_scalar"
"sweep_tree_type" "leafNode"
"iteration" 63.0000
)

"mc1_separate_063_finalTimeOP-info" "analysisInst" (
"info"
"mc1_separate/063/finalTimeOP.info"
"PSF"
"mc1_finalTimeOP-montecarlo"
()
"Circuit Information"
) PROP(
"data_type" "struct"
"sweep_tree_type" "leafNode"
"iteration" 63.0000
)

"mc1_separate_063_modelParameter-info" "analysisInst" (
"info"
"mc1_separate/063/modelParameter.info"
"PSF"
"mc1_modelParameter-montecarlo"
()
"Circuit Information"
) PROP(
"data_type" "struct"
"sweep_tree_type" "leafNode"
"iteration" 63.0000
)

"mc1_separate_063_element-info" "analysisInst" (
"info"
"mc1_separate/063/element.info"
"PSF"
"mc1_element-montecarlo"
()
"Circuit Information"
) PROP(
"data_type" "struct"
"sweep_tree_type" "leafNode"
"iteration" 63.0000
)

"mc1_separate_063_outputParameter-info" "analysisInst" (
"info"
"mc1_separate/063/outputParameter.info"
"PSF"
"mc1_outputParameter-montecarlo"
()
"Circuit Information"
) PROP(
"data_type" "struct"
"sweep_tree_type" "leafNode"
"iteration" 63.0000
)

"mc1_separate_063_designParamVals-info" "analysisInst" (
"info"
"mc1_separate/063/designParamVals.info"
"PSF"
"mc1_designParamVals-montecarlo"
()
"Circuit Information"
) PROP(
"data_type" "struct"
"sweep_tree_type" "leafNode"
"iteration" 63.0000
)

"mc1_separate_063_primitives-info.primitives" "analysisInst" (
"info.primitives"
"mc1_separate/063/primitives.info.primitives"
"PSF"
"mc1_primitives-montecarlo"
()
"Circuit Information"
) PROP(
"sweep_tree_type" "leafNode"
"iteration" 63.0000
)

"mc1_separate_063_subckts-info.subckts" "analysisInst" (
"info.subckts"
"mc1_separate/063/subckts.info.subckts"
"PSF"
"mc1_subckts-montecarlo"
()
"Circuit Information"
) PROP(
"sweep_tree_type" "leafNode"
"iteration" 63.0000
)

"mc1_separate_064_tran-tran" "analysisInst" (
"tran"
"mc1_separate/064/tran.tran.tran"
"PSF"
"mc1_tran-montecarlo"
("time")
"Transient Analysis `tran': time = (0 s -> 50 s)"
) PROP(
"data_type" "swept_scalar"
"sweep_tree_type" "leafNode"
"iteration" 64.0000
)

"mc1_separate_064_finalTimeOP-info" "analysisInst" (
"info"
"mc1_separate/064/finalTimeOP.info"
"PSF"
"mc1_finalTimeOP-montecarlo"
()
"Circuit Information"
) PROP(
"data_type" "struct"
"sweep_tree_type" "leafNode"
"iteration" 64.0000
)

"mc1_separate_064_modelParameter-info" "analysisInst" (
"info"
"mc1_separate/064/modelParameter.info"
"PSF"
"mc1_modelParameter-montecarlo"
()
"Circuit Information"
) PROP(
"data_type" "struct"
"sweep_tree_type" "leafNode"
"iteration" 64.0000
)

"mc1_separate_064_element-info" "analysisInst" (
"info"
"mc1_separate/064/element.info"
"PSF"
"mc1_element-montecarlo"
()
"Circuit Information"
) PROP(
"data_type" "struct"
"sweep_tree_type" "leafNode"
"iteration" 64.0000
)

"mc1_separate_064_outputParameter-info" "analysisInst" (
"info"
"mc1_separate/064/outputParameter.info"
"PSF"
"mc1_outputParameter-montecarlo"
()
"Circuit Information"
) PROP(
"data_type" "struct"
"sweep_tree_type" "leafNode"
"iteration" 64.0000
)

"mc1_separate_064_designParamVals-info" "analysisInst" (
"info"
"mc1_separate/064/designParamVals.info"
"PSF"
"mc1_designParamVals-montecarlo"
()
"Circuit Information"
) PROP(
"data_type" "struct"
"sweep_tree_type" "leafNode"
"iteration" 64.0000
)

"mc1_separate_064_primitives-info.primitives" "analysisInst" (
"info.primitives"
"mc1_separate/064/primitives.info.primitives"
"PSF"
"mc1_primitives-montecarlo"
()
"Circuit Information"
) PROP(
"sweep_tree_type" "leafNode"
"iteration" 64.0000
)

"mc1_separate_064_subckts-info.subckts" "analysisInst" (
"info.subckts"
"mc1_separate/064/subckts.info.subckts"
"PSF"
"mc1_subckts-montecarlo"
()
"Circuit Information"
) PROP(
"sweep_tree_type" "leafNode"
"iteration" 64.0000
)

"mc1_separate_065_tran-tran" "analysisInst" (
"tran"
"mc1_separate/065/tran.tran.tran"
"PSF"
"mc1_tran-montecarlo"
("time")
"Transient Analysis `tran': time = (0 s -> 50 s)"
) PROP(
"data_type" "swept_scalar"
"sweep_tree_type" "leafNode"
"iteration" 65.0000
)

"mc1_separate_065_finalTimeOP-info" "analysisInst" (
"info"
"mc1_separate/065/finalTimeOP.info"
"PSF"
"mc1_finalTimeOP-montecarlo"
()
"Circuit Information"
) PROP(
"data_type" "struct"
"sweep_tree_type" "leafNode"
"iteration" 65.0000
)

"mc1_separate_065_modelParameter-info" "analysisInst" (
"info"
"mc1_separate/065/modelParameter.info"
"PSF"
"mc1_modelParameter-montecarlo"
()
"Circuit Information"
) PROP(
"data_type" "struct"
"sweep_tree_type" "leafNode"
"iteration" 65.0000
)

"mc1_separate_065_element-info" "analysisInst" (
"info"
"mc1_separate/065/element.info"
"PSF"
"mc1_element-montecarlo"
()
"Circuit Information"
) PROP(
"data_type" "struct"
"sweep_tree_type" "leafNode"
"iteration" 65.0000
)

"mc1_separate_065_outputParameter-info" "analysisInst" (
"info"
"mc1_separate/065/outputParameter.info"
"PSF"
"mc1_outputParameter-montecarlo"
()
"Circuit Information"
) PROP(
"data_type" "struct"
"sweep_tree_type" "leafNode"
"iteration" 65.0000
)
