HEADER
"PSFversion" "1.00"
"MN6n MN5n MN4n MN3n MN2n MN1n MN0n" "PRIMLIB_nmos4_spectre"
"MP5n MP4n MP3n MP2n MP6n MP1n MP0n" "PRIMLIB_pmos4_spectre"
"I3n I2n I1n I0n" "MUX"
"C11n C10n C7<0>n C7<1>n C3n C9<0>n C9<1>n C9<2>n C9<3>n C9<4>n C9<5>n C9<6>n C9<7>n C8<0>n C8<1>n C8<2>n C8<3>n" "cpolyc"
"R1n R0n" "analogLib_res_spectre"
"ENv" ":1v"
"GNDAv" ":2v"
"IBIASv" ":3v"
"S<3>v" ":4v"
"S<2>v" ":5v"
"S<1>v" ":6v"
"S<0>v" ":7v"
"VDDAv" ":8v"
"VINv" ":9v"
"VOUTv" ":10v"
