HEADER
"PSFversion" "1.00"
"design" "(\"VGA\" \"VGA_1_tb\" \"schematic\" \"\")"
"simulator" "spectre"
"temperature" "-40"
"host" ""
"date" "Apr 16 09:02:13 2026"
"title" ""
"analysisList" "()"
END
