HEADER
"PSFversion" "1.00"
"design" "(\"FECG\" \"fecg_tb\" \"schematic\" \"\")"
"simulator" "spectre"
"temperature" "27"
"host" ""
"date" "Apr  8 12:13:33 2026"
"title" ""
"analysisList" "()"
END
