HEADER
"PSFversion" "1.00"
"Time Stamp" "Mar 16 17:46:27 2026"
TYPE
"variable" STRUCT(
"value" FLOAT DOUBLE
) PROP( "key" "element" )
VALUE
"IDS" "variable" ( 8.576958986e-9 ) PROP( )
"VDS" "variable" ( 1.5 ) PROP( )
"L" "variable" ( 3e-6 ) PROP( )
"NF" "variable" ( 13 ) PROP( )
"W" "variable" ( 10e-6 ) PROP( )
"temperature" "variable" ( 27 ) PROP( )
"temp" "variable" ( 27 ) PROP( )
END
