HEADER
"PSFversion" "1.00"
"Time Stamp" "Mar 13 09:56:25 2026"
TYPE
"variable" STRUCT(
"value" FLOAT DOUBLE
) PROP( "key" "element" )
VALUE
"VDD" "variable" ( 1.8 ) PROP( )
"temperature" "variable" ( 27 ) PROP( )
"temp" "variable" ( 27 ) PROP( )
END
