HEADER
"PSFversion" "1.00"
"Time Stamp" "Apr 10 12:39:00 2026"
TYPE
"variable" STRUCT(
"value" FLOAT DOUBLE
) PROP( "key" "element" )
VALUE
"VDD" "variable" ( 3.3 ) PROP( )
"V_FREQ" "variable" ( 50 ) PROP( )
"V_AMP" "variable" ( 20e-3 ) PROP( )
"S3" "variable" ( 3.3 ) PROP( )
"S2" "variable" ( 3.3 ) PROP( )
"S1" "variable" ( 3.3 ) PROP( )
"S0" "variable" ( 3.3 ) PROP( )
"temperature" "variable" ( 27 ) PROP( )
"temp" "variable" ( 27 ) PROP( )
END
