HEADER
"PSFversion" "1.00"
"design" "(\"ECG_IA\" \"ecg_vga_tb\" \"schematic\" \"\")"
"simulator" "spectre"
"temperature" "27"
"host" ""
"date" "Mar 16 09:59:10 2026"
"title" ""
"analysisList" "()"
END
