HEADER
"PSFversion" "1.00"
"design" "(\"VGA\" \"VGA_tb_new\" \"schematic\" \"\")"
"simulator" "spectre"
"temperature" "27"
"host" ""
"date" "Mar 11 13:01:25 2026"
"title" ""
"analysisList" "()"
END
