HEADER
"PSFversion" "1.00"
"design" "(\"VGA\" \"VGA_tb_new\" \"schematic\" \"\")"
"simulator" "spectre"
"temperature" "27"
"host" ""
"date" "Mar 12 10:51:06 2026"
"title" ""
"analysisList" "()"
END
