HEADER
"PSFversion" "1.00"
"Time Stamp" "Mar 11 13:01:25 2026"
TYPE
"variable" STRUCT(
"value" FLOAT DOUBLE
) PROP( "key" "element" )
VALUE
"T" "variable" ( 1e-6 ) PROP( )
"temp" "variable" ( 27 ) PROP( )
END
