HEADER
"PSFversion" "1.00"
"Time Stamp" "Mar 12 10:51:06 2026"
TYPE
"variable" STRUCT(
"value" FLOAT DOUBLE
) PROP( "key" "element" )
VALUE
"temp" "variable" ( 27 ) PROP( )
END
