HEADER
"PSFversion" "1.00"
"I0n" "VGA_VGA_veriloga"
"V11n V12n V16n V15n V4n V13n V2n V14n V0n" "analogLib_vdc_spectre"
"V5n" "analogLib_vsin_spectre"
"I4n" "analogLib_idc_spectre"
"I6n" "VGA_FILTER_V2_veriloga"
