HEADER
"PSFversion" "1.00"
"I0n" "VGA_VGA_veriloga"
"V11n V10n V4n V2n V0n" "analogLib_vdc_spectre"
"V5n" "analogLib_vsin_spectre"
"I4n" "analogLib_idc_spectre"
"V9n V8n V7n V6n V1n V3n" "analogLib_vpulse_spectre"
"I6n" "VGA_FILTER_V2_veriloga"
