HEADER
"PSFversion" "1.00"
"Run Generator" "drlRun rev. 1.0"
"Run Time Stamp" "Mar 16 17:44:15 2026"
"date" "Mar 16 17:44:15 2026"
"simulator" "spectre"
"netlistDir" "../netlist"
"axlParamFlag" "true"
 "externalSweepVariableCount" 1
TYPE
"runObject" STRUCT(
"logName" ARRAY( * ) STRING *
"parent" STRING *
"sweepVariable" ARRAY( * ) STRING *
) PROP( "key" "runObject" )
VALUE
"Root" "runObject" (
("")
""
("IDS")
)
"IDS=1e-09" "runObject" (
(
"../../../1/CHARACTERIZATION:GM_ID_PMOS:1/psf/logFile"
"../../../1/CHARACTERIZATION:GM_ID_PMOS:1/psf/artistLogFile"
)
"Root"
()
) PROP(
"#maeCorner" "nom"
 "#pointID" 1
"netlistDir" "../../../1/CHARACTERIZATION:GM_ID_PMOS:1/netlist"
"dataDir" "../../../1/CHARACTERIZATION:GM_ID_PMOS:1"
 "IDS" 1.000000e-09
)

"IDS=1.165914401e-09" "runObject" (
(
"../../../2/CHARACTERIZATION:GM_ID_PMOS:1/psf/logFile"
"../../../2/CHARACTERIZATION:GM_ID_PMOS:1/psf/artistLogFile"
)
"Root"
()
) PROP(
"#maeCorner" "nom"
 "#pointID" 2
"netlistDir" "../../../2/CHARACTERIZATION:GM_ID_PMOS:1/netlist"
"dataDir" "../../../2/CHARACTERIZATION:GM_ID_PMOS:1"
 "IDS" 1.165914e-09
)

"IDS=1.359356391e-09" "runObject" (
(
"../../../3/CHARACTERIZATION:GM_ID_PMOS:1/psf/logFile"
"../../../3/CHARACTERIZATION:GM_ID_PMOS:1/psf/artistLogFile"
)
"Root"
()
) PROP(
"#maeCorner" "nom"
 "#pointID" 3
"netlistDir" "../../../3/CHARACTERIZATION:GM_ID_PMOS:1/netlist"
"dataDir" "../../../3/CHARACTERIZATION:GM_ID_PMOS:1"
 "IDS" 1.359356e-09
)

"IDS=1.584893192e-09" "runObject" (
(
"../../../4/CHARACTERIZATION:GM_ID_PMOS:1/psf/logFile"
"../../../4/CHARACTERIZATION:GM_ID_PMOS:1/psf/artistLogFile"
)
"Root"
()
) PROP(
"#maeCorner" "nom"
 "#pointID" 4
"netlistDir" "../../../4/CHARACTERIZATION:GM_ID_PMOS:1/netlist"
"dataDir" "../../../4/CHARACTERIZATION:GM_ID_PMOS:1"
 "IDS" 1.584893e-09
)

"IDS=1.847849797e-09" "runObject" (
(
"../../../5/CHARACTERIZATION:GM_ID_PMOS:1/psf/logFile"
"../../../5/CHARACTERIZATION:GM_ID_PMOS:1/psf/artistLogFile"
)
"Root"
()
) PROP(
"#maeCorner" "nom"
 "#pointID" 5
"netlistDir" "../../../5/CHARACTERIZATION:GM_ID_PMOS:1/netlist"
"dataDir" "../../../5/CHARACTERIZATION:GM_ID_PMOS:1"
 "IDS" 1.847850e-09
)

"IDS=2.15443469e-09" "runObject" (
(
"../../../6/CHARACTERIZATION:GM_ID_PMOS:1/psf/logFile"
"../../../6/CHARACTERIZATION:GM_ID_PMOS:1/psf/artistLogFile"
)
"Root"
()
) PROP(
"#maeCorner" "nom"
 "#pointID" 6
"netlistDir" "../../../6/CHARACTERIZATION:GM_ID_PMOS:1/netlist"
"dataDir" "../../../6/CHARACTERIZATION:GM_ID_PMOS:1"
 "IDS" 2.154435e-09
)

"IDS=2.511886432e-09" "runObject" (
(
"../../../7/CHARACTERIZATION:GM_ID_PMOS:1/psf/logFile"
"../../../7/CHARACTERIZATION:GM_ID_PMOS:1/psf/artistLogFile"
)
"Root"
()
) PROP(
"#maeCorner" "nom"
 "#pointID" 7
"netlistDir" "../../../7/CHARACTERIZATION:GM_ID_PMOS:1/netlist"
"dataDir" "../../../7/CHARACTERIZATION:GM_ID_PMOS:1"
 "IDS" 2.511886e-09
)

"IDS=2.928644565e-09" "runObject" (
(
"../../../8/CHARACTERIZATION:GM_ID_PMOS:1/psf/logFile"
"../../../8/CHARACTERIZATION:GM_ID_PMOS:1/psf/artistLogFile"
)
"Root"
()
) PROP(
"#maeCorner" "nom"
 "#pointID" 8
"netlistDir" "../../../8/CHARACTERIZATION:GM_ID_PMOS:1/netlist"
"dataDir" "../../../8/CHARACTERIZATION:GM_ID_PMOS:1"
 "IDS" 2.928645e-09
)

"IDS=3.414548874e-09" "runObject" (
(
"../../../9/CHARACTERIZATION:GM_ID_PMOS:1/psf/logFile"
"../../../9/CHARACTERIZATION:GM_ID_PMOS:1/psf/artistLogFile"
)
"Root"
()
) PROP(
"#maeCorner" "nom"
 "#pointID" 9
"netlistDir" "../../../9/CHARACTERIZATION:GM_ID_PMOS:1/netlist"
"dataDir" "../../../9/CHARACTERIZATION:GM_ID_PMOS:1"
 "IDS" 3.414549e-09
)

"IDS=3.981071706e-09" "runObject" (
(
"../../../10/CHARACTERIZATION:GM_ID_PMOS:1/psf/logFile"
"../../../10/CHARACTERIZATION:GM_ID_PMOS:1/psf/artistLogFile"
)
"Root"
()
) PROP(
"#maeCorner" "nom"
 "#pointID" 10
"netlistDir" "../../../10/CHARACTERIZATION:GM_ID_PMOS:1/netlist"
"dataDir" "../../../10/CHARACTERIZATION:GM_ID_PMOS:1"
 "IDS" 3.981072e-09
)

"IDS=4.641588834000001e-09" "runObject" (
(
"../../../11/CHARACTERIZATION:GM_ID_PMOS:1/psf/logFile"
"../../../11/CHARACTERIZATION:GM_ID_PMOS:1/psf/artistLogFile"
)
"Root"
()
) PROP(
"#maeCorner" "nom"
 "#pointID" 11
"netlistDir" "../../../11/CHARACTERIZATION:GM_ID_PMOS:1/netlist"
"dataDir" "../../../11/CHARACTERIZATION:GM_ID_PMOS:1"
 "IDS" 4.641589e-09
)

"IDS=5.411695265e-09" "runObject" (
(
"../../../12/CHARACTERIZATION:GM_ID_PMOS:1/psf/logFile"
"../../../12/CHARACTERIZATION:GM_ID_PMOS:1/psf/artistLogFile"
)
"Root"
()
) PROP(
"#maeCorner" "nom"
 "#pointID" 12
"netlistDir" "../../../12/CHARACTERIZATION:GM_ID_PMOS:1/netlist"
"dataDir" "../../../12/CHARACTERIZATION:GM_ID_PMOS:1"
 "IDS" 5.411695e-09
)

"IDS=6.309573445000001e-09" "runObject" (
(
"../../../13/CHARACTERIZATION:GM_ID_PMOS:1/psf/logFile"
"../../../13/CHARACTERIZATION:GM_ID_PMOS:1/psf/artistLogFile"
)
"Root"
()
) PROP(
"#maeCorner" "nom"
 "#pointID" 13
"netlistDir" "../../../13/CHARACTERIZATION:GM_ID_PMOS:1/netlist"
"dataDir" "../../../13/CHARACTERIZATION:GM_ID_PMOS:1"
 "IDS" 6.309573e-09
)

"IDS=7.356422545000001e-09" "runObject" (
(
"../../../14/CHARACTERIZATION:GM_ID_PMOS:1/psf/logFile"
"../../../14/CHARACTERIZATION:GM_ID_PMOS:1/psf/artistLogFile"
)
"Root"
()
) PROP(
"#maeCorner" "nom"
 "#pointID" 14
"netlistDir" "../../../14/CHARACTERIZATION:GM_ID_PMOS:1/netlist"
"dataDir" "../../../14/CHARACTERIZATION:GM_ID_PMOS:1"
 "IDS" 7.356423e-09
)

"IDS=8.576958985999999e-09" "runObject" (
(
"../../../15/CHARACTERIZATION:GM_ID_PMOS:1/psf/logFile"
"../../../15/CHARACTERIZATION:GM_ID_PMOS:1/psf/artistLogFile"
)
"Root"
()
) PROP(
"#maeCorner" "nom"
 "#pointID" 15
"netlistDir" "../../../15/CHARACTERIZATION:GM_ID_PMOS:1/netlist"
"dataDir" "../../../15/CHARACTERIZATION:GM_ID_PMOS:1"
 "IDS" 8.576959e-09
)

"IDS=1e-08" "runObject" (
(
"../../../16/CHARACTERIZATION:GM_ID_PMOS:1/psf/logFile"
"../../../16/CHARACTERIZATION:GM_ID_PMOS:1/psf/artistLogFile"
)
"Root"
()
) PROP(
"#maeCorner" "nom"
 "#pointID" 16
"netlistDir" "../../../16/CHARACTERIZATION:GM_ID_PMOS:1/netlist"
"dataDir" "../../../16/CHARACTERIZATION:GM_ID_PMOS:1"
 "IDS" 1.000000e-08
)

"IDS=1.165914401e-08" "runObject" (
(
"../../../17/CHARACTERIZATION:GM_ID_PMOS:1/psf/logFile"
"../../../17/CHARACTERIZATION:GM_ID_PMOS:1/psf/artistLogFile"
)
"Root"
()
) PROP(
"#maeCorner" "nom"
 "#pointID" 17
"netlistDir" "../../../17/CHARACTERIZATION:GM_ID_PMOS:1/netlist"
"dataDir" "../../../17/CHARACTERIZATION:GM_ID_PMOS:1"
 "IDS" 1.165914e-08
)

"IDS=1.359356391e-08" "runObject" (
(
"../../../18/CHARACTERIZATION:GM_ID_PMOS:1/psf/logFile"
"../../../18/CHARACTERIZATION:GM_ID_PMOS:1/psf/artistLogFile"
)
"Root"
()
) PROP(
"#maeCorner" "nom"
 "#pointID" 18
"netlistDir" "../../../18/CHARACTERIZATION:GM_ID_PMOS:1/netlist"
"dataDir" "../../../18/CHARACTERIZATION:GM_ID_PMOS:1"
 "IDS" 1.359356e-08
)

"IDS=1.584893192e-08" "runObject" (
(
"../../../19/CHARACTERIZATION:GM_ID_PMOS:1/psf/logFile"
"../../../19/CHARACTERIZATION:GM_ID_PMOS:1/psf/artistLogFile"
)
"Root"
()
) PROP(
"#maeCorner" "nom"
 "#pointID" 19
"netlistDir" "../../../19/CHARACTERIZATION:GM_ID_PMOS:1/netlist"
"dataDir" "../../../19/CHARACTERIZATION:GM_ID_PMOS:1"
 "IDS" 1.584893e-08
)

"IDS=1.847849797e-08" "runObject" (
(
"../../../20/CHARACTERIZATION:GM_ID_PMOS:1/psf/logFile"
"../../../20/CHARACTERIZATION:GM_ID_PMOS:1/psf/artistLogFile"
)
"Root"
()
) PROP(
"#maeCorner" "nom"
 "#pointID" 20
"netlistDir" "../../../20/CHARACTERIZATION:GM_ID_PMOS:1/netlist"
"dataDir" "../../../20/CHARACTERIZATION:GM_ID_PMOS:1"
 "IDS" 1.847850e-08
)

"IDS=2.15443469e-08" "runObject" (
(
"../../../21/CHARACTERIZATION:GM_ID_PMOS:1/psf/logFile"
"../../../21/CHARACTERIZATION:GM_ID_PMOS:1/psf/artistLogFile"
)
"Root"
()
) PROP(
"#maeCorner" "nom"
 "#pointID" 21
"netlistDir" "../../../21/CHARACTERIZATION:GM_ID_PMOS:1/netlist"
"dataDir" "../../../21/CHARACTERIZATION:GM_ID_PMOS:1"
 "IDS" 2.154435e-08
)

"IDS=2.511886432e-08" "runObject" (
(
"../../../22/CHARACTERIZATION:GM_ID_PMOS:1/psf/logFile"
"../../../22/CHARACTERIZATION:GM_ID_PMOS:1/psf/artistLogFile"
)
"Root"
()
) PROP(
"#maeCorner" "nom"
 "#pointID" 22
"netlistDir" "../../../22/CHARACTERIZATION:GM_ID_PMOS:1/netlist"
"dataDir" "../../../22/CHARACTERIZATION:GM_ID_PMOS:1"
 "IDS" 2.511886e-08
)

"IDS=2.928644565e-08" "runObject" (
(
"../../../23/CHARACTERIZATION:GM_ID_PMOS:1/psf/logFile"
"../../../23/CHARACTERIZATION:GM_ID_PMOS:1/psf/artistLogFile"
)
"Root"
()
) PROP(
"#maeCorner" "nom"
 "#pointID" 23
"netlistDir" "../../../23/CHARACTERIZATION:GM_ID_PMOS:1/netlist"
"dataDir" "../../../23/CHARACTERIZATION:GM_ID_PMOS:1"
 "IDS" 2.928645e-08
)

"IDS=3.414548874e-08" "runObject" (
(
"../../../24/CHARACTERIZATION:GM_ID_PMOS:1/psf/logFile"
"../../../24/CHARACTERIZATION:GM_ID_PMOS:1/psf/artistLogFile"
)
"Root"
()
) PROP(
"#maeCorner" "nom"
 "#pointID" 24
"netlistDir" "../../../24/CHARACTERIZATION:GM_ID_PMOS:1/netlist"
"dataDir" "../../../24/CHARACTERIZATION:GM_ID_PMOS:1"
 "IDS" 3.414549e-08
)

"IDS=3.981071706000001e-08" "runObject" (
(
"../../../25/CHARACTERIZATION:GM_ID_PMOS:1/psf/logFile"
"../../../25/CHARACTERIZATION:GM_ID_PMOS:1/psf/artistLogFile"
)
"Root"
()
) PROP(
"#maeCorner" "nom"
 "#pointID" 25
"netlistDir" "../../../25/CHARACTERIZATION:GM_ID_PMOS:1/netlist"
"dataDir" "../../../25/CHARACTERIZATION:GM_ID_PMOS:1"
 "IDS" 3.981072e-08
)

"IDS=4.641588834000001e-08" "runObject" (
(
"../../../26/CHARACTERIZATION:GM_ID_PMOS:1/psf/logFile"
"../../../26/CHARACTERIZATION:GM_ID_PMOS:1/psf/artistLogFile"
)
"Root"
()
) PROP(
"#maeCorner" "nom"
 "#pointID" 26
"netlistDir" "../../../26/CHARACTERIZATION:GM_ID_PMOS:1/netlist"
"dataDir" "../../../26/CHARACTERIZATION:GM_ID_PMOS:1"
 "IDS" 4.641589e-08
)

"IDS=5.411695265000001e-08" "runObject" (
(
"../../../27/CHARACTERIZATION:GM_ID_PMOS:1/psf/logFile"
"../../../27/CHARACTERIZATION:GM_ID_PMOS:1/psf/artistLogFile"
)
"Root"
()
) PROP(
"#maeCorner" "nom"
 "#pointID" 27
"netlistDir" "../../../27/CHARACTERIZATION:GM_ID_PMOS:1/netlist"
"dataDir" "../../../27/CHARACTERIZATION:GM_ID_PMOS:1"
 "IDS" 5.411695e-08
)

"IDS=6.309573445e-08" "runObject" (
(
"../../../28/CHARACTERIZATION:GM_ID_PMOS:1/psf/logFile"
"../../../28/CHARACTERIZATION:GM_ID_PMOS:1/psf/artistLogFile"
)
"Root"
()
) PROP(
"#maeCorner" "nom"
 "#pointID" 28
"netlistDir" "../../../28/CHARACTERIZATION:GM_ID_PMOS:1/netlist"
"dataDir" "../../../28/CHARACTERIZATION:GM_ID_PMOS:1"
 "IDS" 6.309573e-08
)

"IDS=7.356422545e-08" "runObject" (
(
"../../../29/CHARACTERIZATION:GM_ID_PMOS:1/psf/logFile"
"../../../29/CHARACTERIZATION:GM_ID_PMOS:1/psf/artistLogFile"
)
"Root"
()
) PROP(
"#maeCorner" "nom"
 "#pointID" 29
"netlistDir" "../../../29/CHARACTERIZATION:GM_ID_PMOS:1/netlist"
"dataDir" "../../../29/CHARACTERIZATION:GM_ID_PMOS:1"
 "IDS" 7.356423e-08
)

"IDS=8.576958986e-08" "runObject" (
(
"../../../30/CHARACTERIZATION:GM_ID_PMOS:1/psf/logFile"
"../../../30/CHARACTERIZATION:GM_ID_PMOS:1/psf/artistLogFile"
)
"Root"
()
) PROP(
"#maeCorner" "nom"
 "#pointID" 30
"netlistDir" "../../../30/CHARACTERIZATION:GM_ID_PMOS:1/netlist"
"dataDir" "../../../30/CHARACTERIZATION:GM_ID_PMOS:1"
 "IDS" 8.576959e-08
)

"IDS=1e-07" "runObject" (
(
"../../../31/CHARACTERIZATION:GM_ID_PMOS:1/psf/logFile"
"../../../31/CHARACTERIZATION:GM_ID_PMOS:1/psf/artistLogFile"
)
"Root"
()
) PROP(
"#maeCorner" "nom"
 "#pointID" 31
"netlistDir" "../../../31/CHARACTERIZATION:GM_ID_PMOS:1/netlist"
"dataDir" "../../../31/CHARACTERIZATION:GM_ID_PMOS:1"
 "IDS" 1.000000e-07
)

"IDS=1.165914401e-07" "runObject" (
(
"../../../32/CHARACTERIZATION:GM_ID_PMOS:1/psf/logFile"
"../../../32/CHARACTERIZATION:GM_ID_PMOS:1/psf/artistLogFile"
)
"Root"
()
) PROP(
"#maeCorner" "nom"
 "#pointID" 32
"netlistDir" "../../../32/CHARACTERIZATION:GM_ID_PMOS:1/netlist"
"dataDir" "../../../32/CHARACTERIZATION:GM_ID_PMOS:1"
 "IDS" 1.165914e-07
)

"IDS=1.359356391e-07" "runObject" (
(
"../../../33/CHARACTERIZATION:GM_ID_PMOS:1/psf/logFile"
"../../../33/CHARACTERIZATION:GM_ID_PMOS:1/psf/artistLogFile"
)
"Root"
()
) PROP(
"#maeCorner" "nom"
 "#pointID" 33
"netlistDir" "../../../33/CHARACTERIZATION:GM_ID_PMOS:1/netlist"
"dataDir" "../../../33/CHARACTERIZATION:GM_ID_PMOS:1"
 "IDS" 1.359356e-07
)

"IDS=1.584893192e-07" "runObject" (
(
"../../../34/CHARACTERIZATION:GM_ID_PMOS:1/psf/logFile"
"../../../34/CHARACTERIZATION:GM_ID_PMOS:1/psf/artistLogFile"
)
"Root"
()
) PROP(
"#maeCorner" "nom"
 "#pointID" 34
"netlistDir" "../../../34/CHARACTERIZATION:GM_ID_PMOS:1/netlist"
"dataDir" "../../../34/CHARACTERIZATION:GM_ID_PMOS:1"
 "IDS" 1.584893e-07
)

"IDS=1.847849797e-07" "runObject" (
(
"../../../35/CHARACTERIZATION:GM_ID_PMOS:1/psf/logFile"
"../../../35/CHARACTERIZATION:GM_ID_PMOS:1/psf/artistLogFile"
)
"Root"
()
) PROP(
"#maeCorner" "nom"
 "#pointID" 35
"netlistDir" "../../../35/CHARACTERIZATION:GM_ID_PMOS:1/netlist"
"dataDir" "../../../35/CHARACTERIZATION:GM_ID_PMOS:1"
 "IDS" 1.847850e-07
)

"IDS=2.15443469e-07" "runObject" (
(
"../../../36/CHARACTERIZATION:GM_ID_PMOS:1/psf/logFile"
"../../../36/CHARACTERIZATION:GM_ID_PMOS:1/psf/artistLogFile"
)
"Root"
()
) PROP(
"#maeCorner" "nom"
 "#pointID" 36
"netlistDir" "../../../36/CHARACTERIZATION:GM_ID_PMOS:1/netlist"
"dataDir" "../../../36/CHARACTERIZATION:GM_ID_PMOS:1"
 "IDS" 2.154435e-07
)

"IDS=2.511886432e-07" "runObject" (
(
"../../../37/CHARACTERIZATION:GM_ID_PMOS:1/psf/logFile"
"../../../37/CHARACTERIZATION:GM_ID_PMOS:1/psf/artistLogFile"
)
"Root"
()
) PROP(
"#maeCorner" "nom"
 "#pointID" 37
"netlistDir" "../../../37/CHARACTERIZATION:GM_ID_PMOS:1/netlist"
"dataDir" "../../../37/CHARACTERIZATION:GM_ID_PMOS:1"
 "IDS" 2.511886e-07
)

"IDS=2.928644565e-07" "runObject" (
(
"../../../38/CHARACTERIZATION:GM_ID_PMOS:1/psf/logFile"
"../../../38/CHARACTERIZATION:GM_ID_PMOS:1/psf/artistLogFile"
)
"Root"
()
) PROP(
"#maeCorner" "nom"
 "#pointID" 38
"netlistDir" "../../../38/CHARACTERIZATION:GM_ID_PMOS:1/netlist"
"dataDir" "../../../38/CHARACTERIZATION:GM_ID_PMOS:1"
 "IDS" 2.928645e-07
)

"IDS=3.414548874000001e-07" "runObject" (
(
"../../../39/CHARACTERIZATION:GM_ID_PMOS:1/psf/logFile"
"../../../39/CHARACTERIZATION:GM_ID_PMOS:1/psf/artistLogFile"
)
"Root"
()
) PROP(
"#maeCorner" "nom"
 "#pointID" 39
"netlistDir" "../../../39/CHARACTERIZATION:GM_ID_PMOS:1/netlist"
"dataDir" "../../../39/CHARACTERIZATION:GM_ID_PMOS:1"
 "IDS" 3.414549e-07
)

"IDS=3.981071706e-07" "runObject" (
(
"../../../40/CHARACTERIZATION:GM_ID_PMOS:1/psf/logFile"
"../../../40/CHARACTERIZATION:GM_ID_PMOS:1/psf/artistLogFile"
)
"Root"
()
) PROP(
"#maeCorner" "nom"
 "#pointID" 40
"netlistDir" "../../../40/CHARACTERIZATION:GM_ID_PMOS:1/netlist"
"dataDir" "../../../40/CHARACTERIZATION:GM_ID_PMOS:1"
 "IDS" 3.981072e-07
)

"IDS=4.641588834e-07" "runObject" (
(
"../../../41/CHARACTERIZATION:GM_ID_PMOS:1/psf/logFile"
"../../../41/CHARACTERIZATION:GM_ID_PMOS:1/psf/artistLogFile"
)
"Root"
()
) PROP(
"#maeCorner" "nom"
 "#pointID" 41
"netlistDir" "../../../41/CHARACTERIZATION:GM_ID_PMOS:1/netlist"
"dataDir" "../../../41/CHARACTERIZATION:GM_ID_PMOS:1"
 "IDS" 4.641589e-07
)

"IDS=5.411695264999999e-07" "runObject" (
(
"../../../42/CHARACTERIZATION:GM_ID_PMOS:1/psf/logFile"
"../../../42/CHARACTERIZATION:GM_ID_PMOS:1/psf/artistLogFile"
)
"Root"
()
) PROP(
"#maeCorner" "nom"
 "#pointID" 42
"netlistDir" "../../../42/CHARACTERIZATION:GM_ID_PMOS:1/netlist"
"dataDir" "../../../42/CHARACTERIZATION:GM_ID_PMOS:1"
 "IDS" 5.411695e-07
)

"IDS=6.309573445e-07" "runObject" (
(
"../../../43/CHARACTERIZATION:GM_ID_PMOS:1/psf/logFile"
"../../../43/CHARACTERIZATION:GM_ID_PMOS:1/psf/artistLogFile"
)
"Root"
()
) PROP(
"#maeCorner" "nom"
 "#pointID" 43
"netlistDir" "../../../43/CHARACTERIZATION:GM_ID_PMOS:1/netlist"
"dataDir" "../../../43/CHARACTERIZATION:GM_ID_PMOS:1"
 "IDS" 6.309573e-07
)

"IDS=7.356422545000001e-07" "runObject" (
(
"../../../44/CHARACTERIZATION:GM_ID_PMOS:1/psf/logFile"
"../../../44/CHARACTERIZATION:GM_ID_PMOS:1/psf/artistLogFile"
)
"Root"
()
) PROP(
"#maeCorner" "nom"
 "#pointID" 44
"netlistDir" "../../../44/CHARACTERIZATION:GM_ID_PMOS:1/netlist"
"dataDir" "../../../44/CHARACTERIZATION:GM_ID_PMOS:1"
 "IDS" 7.356423e-07
)

"IDS=8.576958986e-07" "runObject" (
(
"../../../45/CHARACTERIZATION:GM_ID_PMOS:1/psf/logFile"
"../../../45/CHARACTERIZATION:GM_ID_PMOS:1/psf/artistLogFile"
)
"Root"
()
) PROP(
"#maeCorner" "nom"
 "#pointID" 45
"netlistDir" "../../../45/CHARACTERIZATION:GM_ID_PMOS:1/netlist"
"dataDir" "../../../45/CHARACTERIZATION:GM_ID_PMOS:1"
 "IDS" 8.576959e-07
)

"IDS=1e-06" "runObject" (
(
"../../../46/CHARACTERIZATION:GM_ID_PMOS:1/psf/logFile"
"../../../46/CHARACTERIZATION:GM_ID_PMOS:1/psf/artistLogFile"
)
"Root"
()
) PROP(
"#maeCorner" "nom"
 "#pointID" 46
"netlistDir" "../../../46/CHARACTERIZATION:GM_ID_PMOS:1/netlist"
"dataDir" "../../../46/CHARACTERIZATION:GM_ID_PMOS:1"
 "IDS" 1.000000e-06
)

"IDS=1.165914401e-06" "runObject" (
(
"../../../47/CHARACTERIZATION:GM_ID_PMOS:1/psf/logFile"
"../../../47/CHARACTERIZATION:GM_ID_PMOS:1/psf/artistLogFile"
)
"Root"
()
) PROP(
"#maeCorner" "nom"
 "#pointID" 47
"netlistDir" "../../../47/CHARACTERIZATION:GM_ID_PMOS:1/netlist"
"dataDir" "../../../47/CHARACTERIZATION:GM_ID_PMOS:1"
 "IDS" 1.165914e-06
)

"IDS=1.359356391e-06" "runObject" (
(
"../../../48/CHARACTERIZATION:GM_ID_PMOS:1/psf/logFile"
"../../../48/CHARACTERIZATION:GM_ID_PMOS:1/psf/artistLogFile"
)
"Root"
()
) PROP(
"#maeCorner" "nom"
 "#pointID" 48
"netlistDir" "../../../48/CHARACTERIZATION:GM_ID_PMOS:1/netlist"
"dataDir" "../../../48/CHARACTERIZATION:GM_ID_PMOS:1"
 "IDS" 1.359356e-06
)

"IDS=1.584893192e-06" "runObject" (
(
"../../../49/CHARACTERIZATION:GM_ID_PMOS:1/psf/logFile"
"../../../49/CHARACTERIZATION:GM_ID_PMOS:1/psf/artistLogFile"
)
"Root"
()
) PROP(
"#maeCorner" "nom"
 "#pointID" 49
"netlistDir" "../../../49/CHARACTERIZATION:GM_ID_PMOS:1/netlist"
"dataDir" "../../../49/CHARACTERIZATION:GM_ID_PMOS:1"
 "IDS" 1.584893e-06
)

"IDS=1.847849797e-06" "runObject" (
(
"../../../50/CHARACTERIZATION:GM_ID_PMOS:1/psf/logFile"
"../../../50/CHARACTERIZATION:GM_ID_PMOS:1/psf/artistLogFile"
)
"Root"
()
) PROP(
"#maeCorner" "nom"
 "#pointID" 50
"netlistDir" "../../../50/CHARACTERIZATION:GM_ID_PMOS:1/netlist"
"dataDir" "../../../50/CHARACTERIZATION:GM_ID_PMOS:1"
 "IDS" 1.847850e-06
)

"IDS=2.15443469e-06" "runObject" (
(
"../../../51/CHARACTERIZATION:GM_ID_PMOS:1/psf/logFile"
"../../../51/CHARACTERIZATION:GM_ID_PMOS:1/psf/artistLogFile"
)
"Root"
()
) PROP(
"#maeCorner" "nom"
 "#pointID" 51
"netlistDir" "../../../51/CHARACTERIZATION:GM_ID_PMOS:1/netlist"
"dataDir" "../../../51/CHARACTERIZATION:GM_ID_PMOS:1"
 "IDS" 2.154435e-06
)

"IDS=2.511886432e-06" "runObject" (
(
"../../../52/CHARACTERIZATION:GM_ID_PMOS:1/psf/logFile"
"../../../52/CHARACTERIZATION:GM_ID_PMOS:1/psf/artistLogFile"
)
"Root"
()
) PROP(
"#maeCorner" "nom"
 "#pointID" 52
"netlistDir" "../../../52/CHARACTERIZATION:GM_ID_PMOS:1/netlist"
"dataDir" "../../../52/CHARACTERIZATION:GM_ID_PMOS:1"
 "IDS" 2.511886e-06
)

"IDS=2.928644565e-06" "runObject" (
(
"../../../53/CHARACTERIZATION:GM_ID_PMOS:1/psf/logFile"
"../../../53/CHARACTERIZATION:GM_ID_PMOS:1/psf/artistLogFile"
)
"Root"
()
) PROP(
"#maeCorner" "nom"
 "#pointID" 53
"netlistDir" "../../../53/CHARACTERIZATION:GM_ID_PMOS:1/netlist"
"dataDir" "../../../53/CHARACTERIZATION:GM_ID_PMOS:1"
 "IDS" 2.928645e-06
)

"IDS=3.414548874e-06" "runObject" (
(
"../../../54/CHARACTERIZATION:GM_ID_PMOS:1/psf/logFile"
"../../../54/CHARACTERIZATION:GM_ID_PMOS:1/psf/artistLogFile"
)
"Root"
()
) PROP(
"#maeCorner" "nom"
 "#pointID" 54
"netlistDir" "../../../54/CHARACTERIZATION:GM_ID_PMOS:1/netlist"
"dataDir" "../../../54/CHARACTERIZATION:GM_ID_PMOS:1"
 "IDS" 3.414549e-06
)

"IDS=3.981071706e-06" "runObject" (
(
"../../../55/CHARACTERIZATION:GM_ID_PMOS:1/psf/logFile"
"../../../55/CHARACTERIZATION:GM_ID_PMOS:1/psf/artistLogFile"
)
"Root"
()
) PROP(
"#maeCorner" "nom"
 "#pointID" 55
"netlistDir" "../../../55/CHARACTERIZATION:GM_ID_PMOS:1/netlist"
"dataDir" "../../../55/CHARACTERIZATION:GM_ID_PMOS:1"
 "IDS" 3.981072e-06
)

"IDS=4.641588834e-06" "runObject" (
(
"../../../56/CHARACTERIZATION:GM_ID_PMOS:1/psf/logFile"
"../../../56/CHARACTERIZATION:GM_ID_PMOS:1/psf/artistLogFile"
)
"Root"
()
) PROP(
"#maeCorner" "nom"
 "#pointID" 56
"netlistDir" "../../../56/CHARACTERIZATION:GM_ID_PMOS:1/netlist"
"dataDir" "../../../56/CHARACTERIZATION:GM_ID_PMOS:1"
 "IDS" 4.641589e-06
)

"IDS=5.411695264999999e-06" "runObject" (
(
"../../../57/CHARACTERIZATION:GM_ID_PMOS:1/psf/logFile"
"../../../57/CHARACTERIZATION:GM_ID_PMOS:1/psf/artistLogFile"
)
"Root"
()
) PROP(
"#maeCorner" "nom"
 "#pointID" 57
"netlistDir" "../../../57/CHARACTERIZATION:GM_ID_PMOS:1/netlist"
"dataDir" "../../../57/CHARACTERIZATION:GM_ID_PMOS:1"
 "IDS" 5.411695e-06
)

"IDS=6.309573445e-06" "runObject" (
(
"../../../58/CHARACTERIZATION:GM_ID_PMOS:1/psf/logFile"
"../../../58/CHARACTERIZATION:GM_ID_PMOS:1/psf/artistLogFile"
)
"Root"
()
) PROP(
"#maeCorner" "nom"
 "#pointID" 58
"netlistDir" "../../../58/CHARACTERIZATION:GM_ID_PMOS:1/netlist"
"dataDir" "../../../58/CHARACTERIZATION:GM_ID_PMOS:1"
 "IDS" 6.309573e-06
)

"IDS=7.356422545e-06" "runObject" (
(
"../../../59/CHARACTERIZATION:GM_ID_PMOS:1/psf/logFile"
"../../../59/CHARACTERIZATION:GM_ID_PMOS:1/psf/artistLogFile"
)
"Root"
()
) PROP(
"#maeCorner" "nom"
 "#pointID" 59
"netlistDir" "../../../59/CHARACTERIZATION:GM_ID_PMOS:1/netlist"
"dataDir" "../../../59/CHARACTERIZATION:GM_ID_PMOS:1"
 "IDS" 7.356423e-06
)

"IDS=8.576958985999999e-06" "runObject" (
(
"../../../60/CHARACTERIZATION:GM_ID_PMOS:1/psf/logFile"
"../../../60/CHARACTERIZATION:GM_ID_PMOS:1/psf/artistLogFile"
)
"Root"
()
) PROP(
"#maeCorner" "nom"
 "#pointID" 60
"netlistDir" "../../../60/CHARACTERIZATION:GM_ID_PMOS:1/netlist"
"dataDir" "../../../60/CHARACTERIZATION:GM_ID_PMOS:1"
 "IDS" 8.576959e-06
)

"IDS=9.999999999999999e-06" "runObject" (
(
"../../../61/CHARACTERIZATION:GM_ID_PMOS:1/psf/logFile"
"../../../61/CHARACTERIZATION:GM_ID_PMOS:1/psf/artistLogFile"
)
"Root"
()
) PROP(
"#maeCorner" "nom"
 "#pointID" 61
"netlistDir" "../../../61/CHARACTERIZATION:GM_ID_PMOS:1/netlist"
"dataDir" "../../../61/CHARACTERIZATION:GM_ID_PMOS:1"
 "IDS" 1.000000e-05
)

"IDS=1.165914401e-05" "runObject" (
(
"../../../62/CHARACTERIZATION:GM_ID_PMOS:1/psf/logFile"
"../../../62/CHARACTERIZATION:GM_ID_PMOS:1/psf/artistLogFile"
)
"Root"
()
) PROP(
"#maeCorner" "nom"
 "#pointID" 62
"netlistDir" "../../../62/CHARACTERIZATION:GM_ID_PMOS:1/netlist"
"dataDir" "../../../62/CHARACTERIZATION:GM_ID_PMOS:1"
 "IDS" 1.165914e-05
)

"IDS=1.359356391e-05" "runObject" (
(
"../../../63/CHARACTERIZATION:GM_ID_PMOS:1/psf/logFile"
"../../../63/CHARACTERIZATION:GM_ID_PMOS:1/psf/artistLogFile"
)
"Root"
()
) PROP(
"#maeCorner" "nom"
 "#pointID" 63
"netlistDir" "../../../63/CHARACTERIZATION:GM_ID_PMOS:1/netlist"
"dataDir" "../../../63/CHARACTERIZATION:GM_ID_PMOS:1"
 "IDS" 1.359356e-05
)

"IDS=1.584893192e-05" "runObject" (
(
"../../../64/CHARACTERIZATION:GM_ID_PMOS:1/psf/logFile"
"../../../64/CHARACTERIZATION:GM_ID_PMOS:1/psf/artistLogFile"
)
"Root"
()
) PROP(
"#maeCorner" "nom"
 "#pointID" 64
"netlistDir" "../../../64/CHARACTERIZATION:GM_ID_PMOS:1/netlist"
"dataDir" "../../../64/CHARACTERIZATION:GM_ID_PMOS:1"
 "IDS" 1.584893e-05
)

"IDS=1.847849797e-05" "runObject" (
(
"../../../65/CHARACTERIZATION:GM_ID_PMOS:1/psf/logFile"
"../../../65/CHARACTERIZATION:GM_ID_PMOS:1/psf/artistLogFile"
)
"Root"
()
) PROP(
"#maeCorner" "nom"
 "#pointID" 65
"netlistDir" "../../../65/CHARACTERIZATION:GM_ID_PMOS:1/netlist"
"dataDir" "../../../65/CHARACTERIZATION:GM_ID_PMOS:1"
 "IDS" 1.847850e-05
)

"IDS=2.15443469e-05" "runObject" (
(
"../../../66/CHARACTERIZATION:GM_ID_PMOS:1/psf/logFile"
"../../../66/CHARACTERIZATION:GM_ID_PMOS:1/psf/artistLogFile"
)
"Root"
()
) PROP(
"#maeCorner" "nom"
 "#pointID" 66
"netlistDir" "../../../66/CHARACTERIZATION:GM_ID_PMOS:1/netlist"
"dataDir" "../../../66/CHARACTERIZATION:GM_ID_PMOS:1"
 "IDS" 2.154435e-05
)

"IDS=2.511886432e-05" "runObject" (
(
"../../../67/CHARACTERIZATION:GM_ID_PMOS:1/psf/logFile"
"../../../67/CHARACTERIZATION:GM_ID_PMOS:1/psf/artistLogFile"
)
"Root"
()
) PROP(
"#maeCorner" "nom"
 "#pointID" 67
"netlistDir" "../../../67/CHARACTERIZATION:GM_ID_PMOS:1/netlist"
"dataDir" "../../../67/CHARACTERIZATION:GM_ID_PMOS:1"
 "IDS" 2.511886e-05
)

"IDS=2.928644565e-05" "runObject" (
(
"../../../68/CHARACTERIZATION:GM_ID_PMOS:1/psf/logFile"
"../../../68/CHARACTERIZATION:GM_ID_PMOS:1/psf/artistLogFile"
)
"Root"
()
) PROP(
"#maeCorner" "nom"
 "#pointID" 68
"netlistDir" "../../../68/CHARACTERIZATION:GM_ID_PMOS:1/netlist"
"dataDir" "../../../68/CHARACTERIZATION:GM_ID_PMOS:1"
 "IDS" 2.928645e-05
)

"IDS=3.414548873999999e-05" "runObject" (
(
"../../../69/CHARACTERIZATION:GM_ID_PMOS:1/psf/logFile"
"../../../69/CHARACTERIZATION:GM_ID_PMOS:1/psf/artistLogFile"
)
"Root"
()
) PROP(
"#maeCorner" "nom"
 "#pointID" 69
"netlistDir" "../../../69/CHARACTERIZATION:GM_ID_PMOS:1/netlist"
"dataDir" "../../../69/CHARACTERIZATION:GM_ID_PMOS:1"
 "IDS" 3.414549e-05
)

"IDS=3.981071706e-05" "runObject" (
(
"../../../70/CHARACTERIZATION:GM_ID_PMOS:1/psf/logFile"
"../../../70/CHARACTERIZATION:GM_ID_PMOS:1/psf/artistLogFile"
)
"Root"
()
) PROP(
"#maeCorner" "nom"
 "#pointID" 70
"netlistDir" "../../../70/CHARACTERIZATION:GM_ID_PMOS:1/netlist"
"dataDir" "../../../70/CHARACTERIZATION:GM_ID_PMOS:1"
 "IDS" 3.981072e-05
)

"IDS=4.641588834e-05" "runObject" (
(
"../../../71/CHARACTERIZATION:GM_ID_PMOS:1/psf/logFile"
"../../../71/CHARACTERIZATION:GM_ID_PMOS:1/psf/artistLogFile"
)
"Root"
()
) PROP(
"#maeCorner" "nom"
 "#pointID" 71
"netlistDir" "../../../71/CHARACTERIZATION:GM_ID_PMOS:1/netlist"
"dataDir" "../../../71/CHARACTERIZATION:GM_ID_PMOS:1"
 "IDS" 4.641589e-05
)

"IDS=5.411695265e-05" "runObject" (
(
"../../../72/CHARACTERIZATION:GM_ID_PMOS:1/psf/logFile"
"../../../72/CHARACTERIZATION:GM_ID_PMOS:1/psf/artistLogFile"
)
"Root"
()
) PROP(
"#maeCorner" "nom"
 "#pointID" 72
"netlistDir" "../../../72/CHARACTERIZATION:GM_ID_PMOS:1/netlist"
"dataDir" "../../../72/CHARACTERIZATION:GM_ID_PMOS:1"
 "IDS" 5.411695e-05
)

"IDS=6.309573444999999e-05" "runObject" (
(
"../../../73/CHARACTERIZATION:GM_ID_PMOS:1/psf/logFile"
"../../../73/CHARACTERIZATION:GM_ID_PMOS:1/psf/artistLogFile"
)
"Root"
()
) PROP(
"#maeCorner" "nom"
 "#pointID" 73
"netlistDir" "../../../73/CHARACTERIZATION:GM_ID_PMOS:1/netlist"
"dataDir" "../../../73/CHARACTERIZATION:GM_ID_PMOS:1"
 "IDS" 6.309573e-05
)

"IDS=7.356422544999999e-05" "runObject" (
(
"../../../74/CHARACTERIZATION:GM_ID_PMOS:1/psf/logFile"
"../../../74/CHARACTERIZATION:GM_ID_PMOS:1/psf/artistLogFile"
)
"Root"
()
) PROP(
"#maeCorner" "nom"
 "#pointID" 74
"netlistDir" "../../../74/CHARACTERIZATION:GM_ID_PMOS:1/netlist"
"dataDir" "../../../74/CHARACTERIZATION:GM_ID_PMOS:1"
 "IDS" 7.356423e-05
)

"IDS=8.576958985999999e-05" "runObject" (
(
"../../../75/CHARACTERIZATION:GM_ID_PMOS:1/psf/logFile"
"../../../75/CHARACTERIZATION:GM_ID_PMOS:1/psf/artistLogFile"
)
"Root"
()
) PROP(
"#maeCorner" "nom"
 "#pointID" 75
"netlistDir" "../../../75/CHARACTERIZATION:GM_ID_PMOS:1/netlist"
"dataDir" "../../../75/CHARACTERIZATION:GM_ID_PMOS:1"
 "IDS" 8.576959e-05
)

"IDS=9.999999999999999e-05" "runObject" (
(
"../../../76/CHARACTERIZATION:GM_ID_PMOS:1/psf/logFile"
"../../../76/CHARACTERIZATION:GM_ID_PMOS:1/psf/artistLogFile"
)
"Root"
()
) PROP(
"#maeCorner" "nom"
 "#pointID" 76
"netlistDir" "../../../76/CHARACTERIZATION:GM_ID_PMOS:1/netlist"
"dataDir" "../../../76/CHARACTERIZATION:GM_ID_PMOS:1"
 "IDS" 1.000000e-04
)

END
