HEADER
"PSFversion" "1.00"
"design" "(\"VGA\" \"VGA_1_pss_tb\" \"schematic\" \"\")"
"simulator" "spectre"
"temperature" "85"
"host" ""
"date" "Apr 16 10:27:32 2026"
"title" ""
"analysisList" "()"
END
