HEADER
"PSFversion" "1.00"
"Run Generator" "drlRun rev. 1.0"
"Run Time Stamp" "Apr 15 16:55:41 2026"
"date" "Apr 15 16:55:41 2026"
"simulator" "spectre"
"netlistDir" "../netlist"
"axlParamFlag" "true"
 "externalSweepVariableCount" 3
"axlDependentVarFlag" "true"
"paramName" "#maeCorner"
 "#maeCorner_num" 17
"#maeCorner_name_1" "nom"
"#maeCorner_name_2" "CMOS_CAP_VDD_TEMP_RAMP_0"
"#maeCorner_name_3" "CMOS_CAP_VDD_TEMP_RAMP_1"
"#maeCorner_name_4" "CMOS_CAP_VDD_TEMP_RAMP_2"
"#maeCorner_name_5" "CMOS_CAP_VDD_TEMP_RAMP_3"
"#maeCorner_name_6" "CMOS_CAP_VDD_TEMP_RAMP_4"
"#maeCorner_name_7" "CMOS_CAP_VDD_TEMP_RAMP_5"
"#maeCorner_name_8" "CMOS_CAP_VDD_TEMP_RAMP_6"
"#maeCorner_name_9" "CMOS_CAP_VDD_TEMP_RAMP_7"
"#maeCorner_name_10" "CMOS_CAP_VDD_TEMP_RAMP_8"
"#maeCorner_name_11" "CMOS_CAP_VDD_TEMP_RAMP_9"
"#maeCorner_name_12" "CMOS_CAP_VDD_TEMP_RAMP_10"
"#maeCorner_name_13" "CMOS_CAP_VDD_TEMP_RAMP_11"
"#maeCorner_name_14" "CMOS_CAP_VDD_TEMP_RAMP_12"
"#maeCorner_name_15" "CMOS_CAP_VDD_TEMP_RAMP_13"
"#maeCorner_name_16" "CMOS_CAP_VDD_TEMP_RAMP_14"
"#maeCorner_name_17" "CMOS_CAP_VDD_TEMP_RAMP_15"
 "#maeCorner_param_set_num" 2
"#maeCorner_param_name_1" "modelFiles"
"#maeCorner_param_name_2" "temperature"
TYPE
"runObject" STRUCT(
"logName" ARRAY( * ) STRING *
"parent" STRING *
"sweepVariable" ARRAY( * ) STRING *
) PROP( "key" "runObject" )
VALUE
"Root" "runObject" (
("")
""
("modelFiles")
)
"modelFiles=processOption.scs,cmos53.scs:cmoswz,res.scs:restm,cap.scs:capws,bip.scs:biptm,ind.scs:indtm,esddiode.scs:esddiodetm" "runObject" (
("")
"Root"
("temperature")
) PROP(
"modelFiles" "processOption.scs,cmos53.scs:cmoswz,res.scs:restm,cap.scs:capws,bip.scs:biptm,ind.scs:indtm,esddiode.scs:esddiodetm"
)

"modelFiles=processOption.scs,cmos53.scs:cmoswz,res.scs:restm,cap.scs:capws,bip.scs:biptm,ind.scs:indtm,esddiode.scs:esddiodetm,temperature=-40.0" "runObject" (
("")
"modelFiles=processOption.scs,cmos53.scs:cmoswz,res.scs:restm,cap.scs:capws,bip.scs:biptm,ind.scs:indtm,esddiode.scs:esddiodetm"
("mcparamset")
) PROP(
 "temperature" -4.000000e+01
)

"modelFiles=processOption.scs,cmos53.scs:cmoswz,res.scs:restm,cap.scs:capws,bip.scs:biptm,ind.scs:indtm,esddiode.scs:esddiodetm,temperature=-40.0,mcparamset=1.0" "runObject" (
(
"../../../16/wakeup/psf/logFile"
"../../../16/wakeup/psf/artistLogFile"
)
"modelFiles=processOption.scs,cmos53.scs:cmoswz,res.scs:restm,cap.scs:capws,bip.scs:biptm,ind.scs:indtm,esddiode.scs:esddiodetm,temperature=-40.0"
()
) PROP(
"#maeCorner" "CMOS_CAP_VDD_TEMP_RAMP_14"
 "#pointID" 16
"netlistDir" "../../../16/wakeup/netlist"
"dataDir" "../../../16/wakeup"
 "mcparamset" 1.000000e+00
)

"modelFiles=processOption.scs,cmos53.scs:cmosws,res.scs:restm,cap.scs:capws,bip.scs:biptm,ind.scs:indtm,esddiode.scs:esddiodetm" "runObject" (
("")
"Root"
("temperature")
) PROP(
"modelFiles" "processOption.scs,cmos53.scs:cmosws,res.scs:restm,cap.scs:capws,bip.scs:biptm,ind.scs:indtm,esddiode.scs:esddiodetm"
)

"modelFiles=processOption.scs,cmos53.scs:cmosws,res.scs:restm,cap.scs:capws,bip.scs:biptm,ind.scs:indtm,esddiode.scs:esddiodetm,temperature=-40.0" "runObject" (
("")
"modelFiles=processOption.scs,cmos53.scs:cmosws,res.scs:restm,cap.scs:capws,bip.scs:biptm,ind.scs:indtm,esddiode.scs:esddiodetm"
("mcparamset")
) PROP(
 "temperature" -4.000000e+01
)

"modelFiles=processOption.scs,cmos53.scs:cmosws,res.scs:restm,cap.scs:capws,bip.scs:biptm,ind.scs:indtm,esddiode.scs:esddiodetm,temperature=-40.0,mcparamset=1.0" "runObject" (
(
"../../../14/wakeup/psf/logFile"
"../../../14/wakeup/psf/artistLogFile"
)
"modelFiles=processOption.scs,cmos53.scs:cmosws,res.scs:restm,cap.scs:capws,bip.scs:biptm,ind.scs:indtm,esddiode.scs:esddiodetm,temperature=-40.0"
()
) PROP(
"#maeCorner" "CMOS_CAP_VDD_TEMP_RAMP_12"
 "#pointID" 14
"netlistDir" "../../../14/wakeup/netlist"
"dataDir" "../../../14/wakeup"
 "mcparamset" 1.000000e+00
)

"modelFiles=processOption.scs,cmos53.scs:cmoswp,res.scs:restm,cap.scs:capws,bip.scs:biptm,ind.scs:indtm,esddiode.scs:esddiodetm" "runObject" (
("")
"Root"
("temperature")
) PROP(
"modelFiles" "processOption.scs,cmos53.scs:cmoswp,res.scs:restm,cap.scs:capws,bip.scs:biptm,ind.scs:indtm,esddiode.scs:esddiodetm"
)

"modelFiles=processOption.scs,cmos53.scs:cmoswp,res.scs:restm,cap.scs:capws,bip.scs:biptm,ind.scs:indtm,esddiode.scs:esddiodetm,temperature=-40.0" "runObject" (
("")
"modelFiles=processOption.scs,cmos53.scs:cmoswp,res.scs:restm,cap.scs:capws,bip.scs:biptm,ind.scs:indtm,esddiode.scs:esddiodetm"
("mcparamset")
) PROP(
 "temperature" -4.000000e+01
)

"modelFiles=processOption.scs,cmos53.scs:cmoswp,res.scs:restm,cap.scs:capws,bip.scs:biptm,ind.scs:indtm,esddiode.scs:esddiodetm,temperature=-40.0,mcparamset=1.0" "runObject" (
(
"../../../12/wakeup/psf/logFile"
"../../../12/wakeup/psf/artistLogFile"
)
"modelFiles=processOption.scs,cmos53.scs:cmoswp,res.scs:restm,cap.scs:capws,bip.scs:biptm,ind.scs:indtm,esddiode.scs:esddiodetm,temperature=-40.0"
()
) PROP(
"#maeCorner" "CMOS_CAP_VDD_TEMP_RAMP_10"
 "#pointID" 12
"netlistDir" "../../../12/wakeup/netlist"
"dataDir" "../../../12/wakeup"
 "mcparamset" 1.000000e+00
)

"modelFiles=processOption.scs,cmos53.scs:cmoswo,res.scs:restm,cap.scs:capws,bip.scs:biptm,ind.scs:indtm,esddiode.scs:esddiodetm" "runObject" (
("")
"Root"
("temperature")
) PROP(
"modelFiles" "processOption.scs,cmos53.scs:cmoswo,res.scs:restm,cap.scs:capws,bip.scs:biptm,ind.scs:indtm,esddiode.scs:esddiodetm"
)

"modelFiles=processOption.scs,cmos53.scs:cmoswo,res.scs:restm,cap.scs:capws,bip.scs:biptm,ind.scs:indtm,esddiode.scs:esddiodetm,temperature=-40.0" "runObject" (
("")
"modelFiles=processOption.scs,cmos53.scs:cmoswo,res.scs:restm,cap.scs:capws,bip.scs:biptm,ind.scs:indtm,esddiode.scs:esddiodetm"
("mcparamset")
) PROP(
 "temperature" -4.000000e+01
)

"modelFiles=processOption.scs,cmos53.scs:cmoswo,res.scs:restm,cap.scs:capws,bip.scs:biptm,ind.scs:indtm,esddiode.scs:esddiodetm,temperature=-40.0,mcparamset=1.0" "runObject" (
(
"../../../10/wakeup/psf/logFile"
"../../../10/wakeup/psf/artistLogFile"
)
"modelFiles=processOption.scs,cmos53.scs:cmoswo,res.scs:restm,cap.scs:capws,bip.scs:biptm,ind.scs:indtm,esddiode.scs:esddiodetm,temperature=-40.0"
()
) PROP(
"#maeCorner" "CMOS_CAP_VDD_TEMP_RAMP_8"
 "#pointID" 10
"netlistDir" "../../../10/wakeup/netlist"
"dataDir" "../../../10/wakeup"
 "mcparamset" 1.000000e+00
)

"modelFiles=processOption.scs,cmos53.scs:cmoswz,res.scs:restm,cap.scs:capwp,bip.scs:biptm,ind.scs:indtm,esddiode.scs:esddiodetm" "runObject" (
("")
"Root"
("temperature")
) PROP(
"modelFiles" "processOption.scs,cmos53.scs:cmoswz,res.scs:restm,cap.scs:capwp,bip.scs:biptm,ind.scs:indtm,esddiode.scs:esddiodetm"
)

"modelFiles=processOption.scs,cmos53.scs:cmoswz,res.scs:restm,cap.scs:capwp,bip.scs:biptm,ind.scs:indtm,esddiode.scs:esddiodetm,temperature=-40.0" "runObject" (
("")
"modelFiles=processOption.scs,cmos53.scs:cmoswz,res.scs:restm,cap.scs:capwp,bip.scs:biptm,ind.scs:indtm,esddiode.scs:esddiodetm"
("mcparamset")
) PROP(
 "temperature" -4.000000e+01
)

"modelFiles=processOption.scs,cmos53.scs:cmoswz,res.scs:restm,cap.scs:capwp,bip.scs:biptm,ind.scs:indtm,esddiode.scs:esddiodetm,temperature=-40.0,mcparamset=1.0" "runObject" (
(
"../../../8/wakeup/psf/logFile"
"../../../8/wakeup/psf/artistLogFile"
)
"modelFiles=processOption.scs,cmos53.scs:cmoswz,res.scs:restm,cap.scs:capwp,bip.scs:biptm,ind.scs:indtm,esddiode.scs:esddiodetm,temperature=-40.0"
()
) PROP(
"#maeCorner" "CMOS_CAP_VDD_TEMP_RAMP_6"
 "#pointID" 8
"netlistDir" "../../../8/wakeup/netlist"
"dataDir" "../../../8/wakeup"
 "mcparamset" 1.000000e+00
)

"modelFiles=processOption.scs,cmos53.scs:cmosws,res.scs:restm,cap.scs:capwp,bip.scs:biptm,ind.scs:indtm,esddiode.scs:esddiodetm" "runObject" (
("")
"Root"
("temperature")
) PROP(
"modelFiles" "processOption.scs,cmos53.scs:cmosws,res.scs:restm,cap.scs:capwp,bip.scs:biptm,ind.scs:indtm,esddiode.scs:esddiodetm"
)

"modelFiles=processOption.scs,cmos53.scs:cmosws,res.scs:restm,cap.scs:capwp,bip.scs:biptm,ind.scs:indtm,esddiode.scs:esddiodetm,temperature=-40.0" "runObject" (
("")
"modelFiles=processOption.scs,cmos53.scs:cmosws,res.scs:restm,cap.scs:capwp,bip.scs:biptm,ind.scs:indtm,esddiode.scs:esddiodetm"
("mcparamset")
) PROP(
 "temperature" -4.000000e+01
)

"modelFiles=processOption.scs,cmos53.scs:cmosws,res.scs:restm,cap.scs:capwp,bip.scs:biptm,ind.scs:indtm,esddiode.scs:esddiodetm,temperature=-40.0,mcparamset=1.0" "runObject" (
(
"../../../6/wakeup/psf/logFile"
"../../../6/wakeup/psf/artistLogFile"
)
"modelFiles=processOption.scs,cmos53.scs:cmosws,res.scs:restm,cap.scs:capwp,bip.scs:biptm,ind.scs:indtm,esddiode.scs:esddiodetm,temperature=-40.0"
()
) PROP(
"#maeCorner" "CMOS_CAP_VDD_TEMP_RAMP_4"
 "#pointID" 6
"netlistDir" "../../../6/wakeup/netlist"
"dataDir" "../../../6/wakeup"
 "mcparamset" 1.000000e+00
)

"modelFiles=processOption.scs,cmos53.scs:cmoswp,res.scs:restm,cap.scs:capwp,bip.scs:biptm,ind.scs:indtm,esddiode.scs:esddiodetm" "runObject" (
("")
"Root"
("temperature")
) PROP(
"modelFiles" "processOption.scs,cmos53.scs:cmoswp,res.scs:restm,cap.scs:capwp,bip.scs:biptm,ind.scs:indtm,esddiode.scs:esddiodetm"
)

"modelFiles=processOption.scs,cmos53.scs:cmoswp,res.scs:restm,cap.scs:capwp,bip.scs:biptm,ind.scs:indtm,esddiode.scs:esddiodetm,temperature=-40.0" "runObject" (
("")
"modelFiles=processOption.scs,cmos53.scs:cmoswp,res.scs:restm,cap.scs:capwp,bip.scs:biptm,ind.scs:indtm,esddiode.scs:esddiodetm"
("mcparamset")
) PROP(
 "temperature" -4.000000e+01
)

"modelFiles=processOption.scs,cmos53.scs:cmoswp,res.scs:restm,cap.scs:capwp,bip.scs:biptm,ind.scs:indtm,esddiode.scs:esddiodetm,temperature=-40.0,mcparamset=1.0" "runObject" (
(
"../../../4/wakeup/psf/logFile"
"../../../4/wakeup/psf/artistLogFile"
)
"modelFiles=processOption.scs,cmos53.scs:cmoswp,res.scs:restm,cap.scs:capwp,bip.scs:biptm,ind.scs:indtm,esddiode.scs:esddiodetm,temperature=-40.0"
()
) PROP(
"#maeCorner" "CMOS_CAP_VDD_TEMP_RAMP_2"
 "#pointID" 4
"netlistDir" "../../../4/wakeup/netlist"
"dataDir" "../../../4/wakeup"
 "mcparamset" 1.000000e+00
)

"modelFiles=processOption.scs,cmos53.scs:cmoswo,res.scs:restm,cap.scs:capwp,bip.scs:biptm,ind.scs:indtm,esddiode.scs:esddiodetm" "runObject" (
("")
"Root"
("temperature")
) PROP(
"modelFiles" "processOption.scs,cmos53.scs:cmoswo,res.scs:restm,cap.scs:capwp,bip.scs:biptm,ind.scs:indtm,esddiode.scs:esddiodetm"
)

"modelFiles=processOption.scs,cmos53.scs:cmoswo,res.scs:restm,cap.scs:capwp,bip.scs:biptm,ind.scs:indtm,esddiode.scs:esddiodetm,temperature=-40.0" "runObject" (
("")
"modelFiles=processOption.scs,cmos53.scs:cmoswo,res.scs:restm,cap.scs:capwp,bip.scs:biptm,ind.scs:indtm,esddiode.scs:esddiodetm"
("mcparamset")
) PROP(
 "temperature" -4.000000e+01
)

"modelFiles=processOption.scs,cmos53.scs:cmoswo,res.scs:restm,cap.scs:capwp,bip.scs:biptm,ind.scs:indtm,esddiode.scs:esddiodetm,temperature=-40.0,mcparamset=1.0" "runObject" (
(
"../../../2/wakeup/psf/logFile"
"../../../2/wakeup/psf/artistLogFile"
)
"modelFiles=processOption.scs,cmos53.scs:cmoswo,res.scs:restm,cap.scs:capwp,bip.scs:biptm,ind.scs:indtm,esddiode.scs:esddiodetm,temperature=-40.0"
()
) PROP(
"#maeCorner" "CMOS_CAP_VDD_TEMP_RAMP_0"
 "#pointID" 2
"netlistDir" "../../../2/wakeup/netlist"
"dataDir" "../../../2/wakeup"
 "mcparamset" 1.000000e+00
)

"modelFiles=processOption.scs,cmos53.scs:cmostm,res.scs:restm,cap.scs:captm,bip.scs:biptm,ind.scs:indtm,esddiode.scs:esddiodetm" "runObject" (
("")
"Root"
("temperature")
) PROP(
"modelFiles" "processOption.scs,cmos53.scs:cmostm,res.scs:restm,cap.scs:captm,bip.scs:biptm,ind.scs:indtm,esddiode.scs:esddiodetm"
)

"modelFiles=processOption.scs,cmos53.scs:cmostm,res.scs:restm,cap.scs:captm,bip.scs:biptm,ind.scs:indtm,esddiode.scs:esddiodetm,temperature=27.0" "runObject" (
("")
"modelFiles=processOption.scs,cmos53.scs:cmostm,res.scs:restm,cap.scs:captm,bip.scs:biptm,ind.scs:indtm,esddiode.scs:esddiodetm"
("mcparamset")
) PROP(
 "temperature" 2.700000e+01
)

"modelFiles=processOption.scs,cmos53.scs:cmostm,res.scs:restm,cap.scs:captm,bip.scs:biptm,ind.scs:indtm,esddiode.scs:esddiodetm,temperature=27.0,mcparamset=1.0" "runObject" (
(
"../../../1/wakeup/psf/logFile"
"../../../1/wakeup/psf/artistLogFile"
)
"modelFiles=processOption.scs,cmos53.scs:cmostm,res.scs:restm,cap.scs:captm,bip.scs:biptm,ind.scs:indtm,esddiode.scs:esddiodetm,temperature=27.0"
()
) PROP(
"#maeCorner" "nom"
 "#pointID" 1
"netlistDir" "../../../1/wakeup/netlist"
"dataDir" "../../../1/wakeup"
 "mcparamset" 1.000000e+00
)

"modelFiles=processOption.scs,cmos53.scs:cmoswz,res.scs:restm,cap.scs:capws,bip.scs:biptm,ind.scs:indtm,esddiode.scs:esddiodetm,temperature=85.0" "runObject" (
("")
"modelFiles=processOption.scs,cmos53.scs:cmoswz,res.scs:restm,cap.scs:capws,bip.scs:biptm,ind.scs:indtm,esddiode.scs:esddiodetm"
("mcparamset")
) PROP(
 "temperature" 8.500000e+01
)

"modelFiles=processOption.scs,cmos53.scs:cmoswz,res.scs:restm,cap.scs:capws,bip.scs:biptm,ind.scs:indtm,esddiode.scs:esddiodetm,temperature=85.0,mcparamset=1.0" "runObject" (
(
"../../../17/wakeup/psf/logFile"
"../../../17/wakeup/psf/artistLogFile"
)
"modelFiles=processOption.scs,cmos53.scs:cmoswz,res.scs:restm,cap.scs:capws,bip.scs:biptm,ind.scs:indtm,esddiode.scs:esddiodetm,temperature=85.0"
()
) PROP(
"#maeCorner" "CMOS_CAP_VDD_TEMP_RAMP_15"
 "#pointID" 17
"netlistDir" "../../../17/wakeup/netlist"
"dataDir" "../../../17/wakeup"
 "mcparamset" 1.000000e+00
)

"modelFiles=processOption.scs,cmos53.scs:cmosws,res.scs:restm,cap.scs:capws,bip.scs:biptm,ind.scs:indtm,esddiode.scs:esddiodetm,temperature=85.0" "runObject" (
("")
"modelFiles=processOption.scs,cmos53.scs:cmosws,res.scs:restm,cap.scs:capws,bip.scs:biptm,ind.scs:indtm,esddiode.scs:esddiodetm"
("mcparamset")
) PROP(
 "temperature" 8.500000e+01
)

"modelFiles=processOption.scs,cmos53.scs:cmosws,res.scs:restm,cap.scs:capws,bip.scs:biptm,ind.scs:indtm,esddiode.scs:esddiodetm,temperature=85.0,mcparamset=1.0" "runObject" (
(
"../../../15/wakeup/psf/logFile"
"../../../15/wakeup/psf/artistLogFile"
)
"modelFiles=processOption.scs,cmos53.scs:cmosws,res.scs:restm,cap.scs:capws,bip.scs:biptm,ind.scs:indtm,esddiode.scs:esddiodetm,temperature=85.0"
()
) PROP(
"#maeCorner" "CMOS_CAP_VDD_TEMP_RAMP_13"
 "#pointID" 15
"netlistDir" "../../../15/wakeup/netlist"
"dataDir" "../../../15/wakeup"
 "mcparamset" 1.000000e+00
)

"modelFiles=processOption.scs,cmos53.scs:cmoswp,res.scs:restm,cap.scs:capws,bip.scs:biptm,ind.scs:indtm,esddiode.scs:esddiodetm,temperature=85.0" "runObject" (
("")
"modelFiles=processOption.scs,cmos53.scs:cmoswp,res.scs:restm,cap.scs:capws,bip.scs:biptm,ind.scs:indtm,esddiode.scs:esddiodetm"
("mcparamset")
) PROP(
 "temperature" 8.500000e+01
)

"modelFiles=processOption.scs,cmos53.scs:cmoswp,res.scs:restm,cap.scs:capws,bip.scs:biptm,ind.scs:indtm,esddiode.scs:esddiodetm,temperature=85.0,mcparamset=1.0" "runObject" (
(
"../../../13/wakeup/psf/logFile"
"../../../13/wakeup/psf/artistLogFile"
)
"modelFiles=processOption.scs,cmos53.scs:cmoswp,res.scs:restm,cap.scs:capws,bip.scs:biptm,ind.scs:indtm,esddiode.scs:esddiodetm,temperature=85.0"
()
) PROP(
"#maeCorner" "CMOS_CAP_VDD_TEMP_RAMP_11"
 "#pointID" 13
"netlistDir" "../../../13/wakeup/netlist"
"dataDir" "../../../13/wakeup"
 "mcparamset" 1.000000e+00
)

"modelFiles=processOption.scs,cmos53.scs:cmoswo,res.scs:restm,cap.scs:capws,bip.scs:biptm,ind.scs:indtm,esddiode.scs:esddiodetm,temperature=85.0" "runObject" (
("")
"modelFiles=processOption.scs,cmos53.scs:cmoswo,res.scs:restm,cap.scs:capws,bip.scs:biptm,ind.scs:indtm,esddiode.scs:esddiodetm"
("mcparamset")
) PROP(
 "temperature" 8.500000e+01
)

"modelFiles=processOption.scs,cmos53.scs:cmoswo,res.scs:restm,cap.scs:capws,bip.scs:biptm,ind.scs:indtm,esddiode.scs:esddiodetm,temperature=85.0,mcparamset=1.0" "runObject" (
(
"../../../11/wakeup/psf/logFile"
"../../../11/wakeup/psf/artistLogFile"
)
"modelFiles=processOption.scs,cmos53.scs:cmoswo,res.scs:restm,cap.scs:capws,bip.scs:biptm,ind.scs:indtm,esddiode.scs:esddiodetm,temperature=85.0"
()
) PROP(
"#maeCorner" "CMOS_CAP_VDD_TEMP_RAMP_9"
 "#pointID" 11
"netlistDir" "../../../11/wakeup/netlist"
"dataDir" "../../../11/wakeup"
 "mcparamset" 1.000000e+00
)

"modelFiles=processOption.scs,cmos53.scs:cmoswz,res.scs:restm,cap.scs:capwp,bip.scs:biptm,ind.scs:indtm,esddiode.scs:esddiodetm,temperature=85.0" "runObject" (
("")
"modelFiles=processOption.scs,cmos53.scs:cmoswz,res.scs:restm,cap.scs:capwp,bip.scs:biptm,ind.scs:indtm,esddiode.scs:esddiodetm"
("mcparamset")
) PROP(
 "temperature" 8.500000e+01
)

"modelFiles=processOption.scs,cmos53.scs:cmoswz,res.scs:restm,cap.scs:capwp,bip.scs:biptm,ind.scs:indtm,esddiode.scs:esddiodetm,temperature=85.0,mcparamset=1.0" "runObject" (
(
"../../../9/wakeup/psf/logFile"
"../../../9/wakeup/psf/artistLogFile"
)
"modelFiles=processOption.scs,cmos53.scs:cmoswz,res.scs:restm,cap.scs:capwp,bip.scs:biptm,ind.scs:indtm,esddiode.scs:esddiodetm,temperature=85.0"
()
) PROP(
"#maeCorner" "CMOS_CAP_VDD_TEMP_RAMP_7"
 "#pointID" 9
"netlistDir" "../../../9/wakeup/netlist"
"dataDir" "../../../9/wakeup"
 "mcparamset" 1.000000e+00
)

"modelFiles=processOption.scs,cmos53.scs:cmosws,res.scs:restm,cap.scs:capwp,bip.scs:biptm,ind.scs:indtm,esddiode.scs:esddiodetm,temperature=85.0" "runObject" (
("")
"modelFiles=processOption.scs,cmos53.scs:cmosws,res.scs:restm,cap.scs:capwp,bip.scs:biptm,ind.scs:indtm,esddiode.scs:esddiodetm"
("mcparamset")
) PROP(
 "temperature" 8.500000e+01
)

"modelFiles=processOption.scs,cmos53.scs:cmosws,res.scs:restm,cap.scs:capwp,bip.scs:biptm,ind.scs:indtm,esddiode.scs:esddiodetm,temperature=85.0,mcparamset=1.0" "runObject" (
(
"../../../7/wakeup/psf/logFile"
"../../../7/wakeup/psf/artistLogFile"
)
"modelFiles=processOption.scs,cmos53.scs:cmosws,res.scs:restm,cap.scs:capwp,bip.scs:biptm,ind.scs:indtm,esddiode.scs:esddiodetm,temperature=85.0"
()
) PROP(
"#maeCorner" "CMOS_CAP_VDD_TEMP_RAMP_5"
 "#pointID" 7
"netlistDir" "../../../7/wakeup/netlist"
"dataDir" "../../../7/wakeup"
 "mcparamset" 1.000000e+00
)

"modelFiles=processOption.scs,cmos53.scs:cmoswp,res.scs:restm,cap.scs:capwp,bip.scs:biptm,ind.scs:indtm,esddiode.scs:esddiodetm,temperature=85.0" "runObject" (
("")
"modelFiles=processOption.scs,cmos53.scs:cmoswp,res.scs:restm,cap.scs:capwp,bip.scs:biptm,ind.scs:indtm,esddiode.scs:esddiodetm"
("mcparamset")
) PROP(
 "temperature" 8.500000e+01
)

"modelFiles=processOption.scs,cmos53.scs:cmoswp,res.scs:restm,cap.scs:capwp,bip.scs:biptm,ind.scs:indtm,esddiode.scs:esddiodetm,temperature=85.0,mcparamset=1.0" "runObject" (
(
"../../../5/wakeup/psf/logFile"
"../../../5/wakeup/psf/artistLogFile"
)
"modelFiles=processOption.scs,cmos53.scs:cmoswp,res.scs:restm,cap.scs:capwp,bip.scs:biptm,ind.scs:indtm,esddiode.scs:esddiodetm,temperature=85.0"
()
) PROP(
"#maeCorner" "CMOS_CAP_VDD_TEMP_RAMP_3"
 "#pointID" 5
"netlistDir" "../../../5/wakeup/netlist"
"dataDir" "../../../5/wakeup"
 "mcparamset" 1.000000e+00
)

"modelFiles=processOption.scs,cmos53.scs:cmoswo,res.scs:restm,cap.scs:capwp,bip.scs:biptm,ind.scs:indtm,esddiode.scs:esddiodetm,temperature=85.0" "runObject" (
("")
"modelFiles=processOption.scs,cmos53.scs:cmoswo,res.scs:restm,cap.scs:capwp,bip.scs:biptm,ind.scs:indtm,esddiode.scs:esddiodetm"
("mcparamset")
) PROP(
 "temperature" 8.500000e+01
)

"modelFiles=processOption.scs,cmos53.scs:cmoswo,res.scs:restm,cap.scs:capwp,bip.scs:biptm,ind.scs:indtm,esddiode.scs:esddiodetm,temperature=85.0,mcparamset=1.0" "runObject" (
(
"../../../3/wakeup/psf/logFile"
"../../../3/wakeup/psf/artistLogFile"
)
"modelFiles=processOption.scs,cmos53.scs:cmoswo,res.scs:restm,cap.scs:capwp,bip.scs:biptm,ind.scs:indtm,esddiode.scs:esddiodetm,temperature=85.0"
()
) PROP(
"#maeCorner" "CMOS_CAP_VDD_TEMP_RAMP_1"
 "#pointID" 3
"netlistDir" "../../../3/wakeup/netlist"
"dataDir" "../../../3/wakeup"
 "mcparamset" 1.000000e+00
)

"modelFiles=processOption.scs,cmos53.scs:cmoswz,res.scs:restm,cap.scs:capws,bip.scs:biptm,ind.scs:indtm,esddiode.scs:esddiodetm,temperature=-40.0,mcparamset=2.0" "runObject" (
(
"../../../33/wakeup/psf/logFile"
"../../../33/wakeup/psf/artistLogFile"
)
"modelFiles=processOption.scs,cmos53.scs:cmoswz,res.scs:restm,cap.scs:capws,bip.scs:biptm,ind.scs:indtm,esddiode.scs:esddiodetm,temperature=-40.0"
()
) PROP(
"#maeCorner" "CMOS_CAP_VDD_TEMP_RAMP_14"
 "#pointID" 33
"netlistDir" "../../../33/wakeup/netlist"
"dataDir" "../../../33/wakeup"
 "mcparamset" 2.000000e+00
)

"modelFiles=processOption.scs,cmos53.scs:cmosws,res.scs:restm,cap.scs:capws,bip.scs:biptm,ind.scs:indtm,esddiode.scs:esddiodetm,temperature=-40.0,mcparamset=2.0" "runObject" (
(
"../../../31/wakeup/psf/logFile"
"../../../31/wakeup/psf/artistLogFile"
)
"modelFiles=processOption.scs,cmos53.scs:cmosws,res.scs:restm,cap.scs:capws,bip.scs:biptm,ind.scs:indtm,esddiode.scs:esddiodetm,temperature=-40.0"
()
) PROP(
"#maeCorner" "CMOS_CAP_VDD_TEMP_RAMP_12"
 "#pointID" 31
"netlistDir" "../../../31/wakeup/netlist"
"dataDir" "../../../31/wakeup"
 "mcparamset" 2.000000e+00
)

"modelFiles=processOption.scs,cmos53.scs:cmoswp,res.scs:restm,cap.scs:capws,bip.scs:biptm,ind.scs:indtm,esddiode.scs:esddiodetm,temperature=-40.0,mcparamset=2.0" "runObject" (
(
"../../../29/wakeup/psf/logFile"
"../../../29/wakeup/psf/artistLogFile"
)
"modelFiles=processOption.scs,cmos53.scs:cmoswp,res.scs:restm,cap.scs:capws,bip.scs:biptm,ind.scs:indtm,esddiode.scs:esddiodetm,temperature=-40.0"
()
) PROP(
"#maeCorner" "CMOS_CAP_VDD_TEMP_RAMP_10"
 "#pointID" 29
"netlistDir" "../../../29/wakeup/netlist"
"dataDir" "../../../29/wakeup"
 "mcparamset" 2.000000e+00
)

"modelFiles=processOption.scs,cmos53.scs:cmoswo,res.scs:restm,cap.scs:capws,bip.scs:biptm,ind.scs:indtm,esddiode.scs:esddiodetm,temperature=-40.0,mcparamset=2.0" "runObject" (
(
"../../../27/wakeup/psf/logFile"
"../../../27/wakeup/psf/artistLogFile"
)
"modelFiles=processOption.scs,cmos53.scs:cmoswo,res.scs:restm,cap.scs:capws,bip.scs:biptm,ind.scs:indtm,esddiode.scs:esddiodetm,temperature=-40.0"
()
) PROP(
"#maeCorner" "CMOS_CAP_VDD_TEMP_RAMP_8"
 "#pointID" 27
"netlistDir" "../../../27/wakeup/netlist"
"dataDir" "../../../27/wakeup"
 "mcparamset" 2.000000e+00
)

"modelFiles=processOption.scs,cmos53.scs:cmoswz,res.scs:restm,cap.scs:capwp,bip.scs:biptm,ind.scs:indtm,esddiode.scs:esddiodetm,temperature=-40.0,mcparamset=2.0" "runObject" (
(
"../../../25/wakeup/psf/logFile"
"../../../25/wakeup/psf/artistLogFile"
)
"modelFiles=processOption.scs,cmos53.scs:cmoswz,res.scs:restm,cap.scs:capwp,bip.scs:biptm,ind.scs:indtm,esddiode.scs:esddiodetm,temperature=-40.0"
()
) PROP(
"#maeCorner" "CMOS_CAP_VDD_TEMP_RAMP_6"
 "#pointID" 25
"netlistDir" "../../../25/wakeup/netlist"
"dataDir" "../../../25/wakeup"
 "mcparamset" 2.000000e+00
)

"modelFiles=processOption.scs,cmos53.scs:cmosws,res.scs:restm,cap.scs:capwp,bip.scs:biptm,ind.scs:indtm,esddiode.scs:esddiodetm,temperature=-40.0,mcparamset=2.0" "runObject" (
(
"../../../23/wakeup/psf/logFile"
"../../../23/wakeup/psf/artistLogFile"
)
"modelFiles=processOption.scs,cmos53.scs:cmosws,res.scs:restm,cap.scs:capwp,bip.scs:biptm,ind.scs:indtm,esddiode.scs:esddiodetm,temperature=-40.0"
()
) PROP(
"#maeCorner" "CMOS_CAP_VDD_TEMP_RAMP_4"
 "#pointID" 23
"netlistDir" "../../../23/wakeup/netlist"
"dataDir" "../../../23/wakeup"
 "mcparamset" 2.000000e+00
)

"modelFiles=processOption.scs,cmos53.scs:cmoswp,res.scs:restm,cap.scs:capwp,bip.scs:biptm,ind.scs:indtm,esddiode.scs:esddiodetm,temperature=-40.0,mcparamset=2.0" "runObject" (
(
"../../../21/wakeup/psf/logFile"
"../../../21/wakeup/psf/artistLogFile"
)
"modelFiles=processOption.scs,cmos53.scs:cmoswp,res.scs:restm,cap.scs:capwp,bip.scs:biptm,ind.scs:indtm,esddiode.scs:esddiodetm,temperature=-40.0"
()
) PROP(
"#maeCorner" "CMOS_CAP_VDD_TEMP_RAMP_2"
 "#pointID" 21
"netlistDir" "../../../21/wakeup/netlist"
"dataDir" "../../../21/wakeup"
 "mcparamset" 2.000000e+00
)

"modelFiles=processOption.scs,cmos53.scs:cmoswo,res.scs:restm,cap.scs:capwp,bip.scs:biptm,ind.scs:indtm,esddiode.scs:esddiodetm,temperature=-40.0,mcparamset=2.0" "runObject" (
(
"../../../19/wakeup/psf/logFile"
"../../../19/wakeup/psf/artistLogFile"
)
"modelFiles=processOption.scs,cmos53.scs:cmoswo,res.scs:restm,cap.scs:capwp,bip.scs:biptm,ind.scs:indtm,esddiode.scs:esddiodetm,temperature=-40.0"
()
) PROP(
"#maeCorner" "CMOS_CAP_VDD_TEMP_RAMP_0"
 "#pointID" 19
"netlistDir" "../../../19/wakeup/netlist"
"dataDir" "../../../19/wakeup"
 "mcparamset" 2.000000e+00
)

"modelFiles=processOption.scs,cmos53.scs:cmostm,res.scs:restm,cap.scs:captm,bip.scs:biptm,ind.scs:indtm,esddiode.scs:esddiodetm,temperature=27.0,mcparamset=2.0" "runObject" (
(
"../../../18/wakeup/psf/logFile"
"../../../18/wakeup/psf/artistLogFile"
)
"modelFiles=processOption.scs,cmos53.scs:cmostm,res.scs:restm,cap.scs:captm,bip.scs:biptm,ind.scs:indtm,esddiode.scs:esddiodetm,temperature=27.0"
()
) PROP(
"#maeCorner" "nom"
 "#pointID" 18
"netlistDir" "../../../18/wakeup/netlist"
"dataDir" "../../../18/wakeup"
 "mcparamset" 2.000000e+00
)

"modelFiles=processOption.scs,cmos53.scs:cmoswz,res.scs:restm,cap.scs:capws,bip.scs:biptm,ind.scs:indtm,esddiode.scs:esddiodetm,temperature=85.0,mcparamset=2.0" "runObject" (
(
"../../../34/wakeup/psf/logFile"
"../../../34/wakeup/psf/artistLogFile"
)
"modelFiles=processOption.scs,cmos53.scs:cmoswz,res.scs:restm,cap.scs:capws,bip.scs:biptm,ind.scs:indtm,esddiode.scs:esddiodetm,temperature=85.0"
()
) PROP(
"#maeCorner" "CMOS_CAP_VDD_TEMP_RAMP_15"
 "#pointID" 34
"netlistDir" "../../../34/wakeup/netlist"
"dataDir" "../../../34/wakeup"
 "mcparamset" 2.000000e+00
)

"modelFiles=processOption.scs,cmos53.scs:cmosws,res.scs:restm,cap.scs:capws,bip.scs:biptm,ind.scs:indtm,esddiode.scs:esddiodetm,temperature=85.0,mcparamset=2.0" "runObject" (
(
"../../../32/wakeup/psf/logFile"
"../../../32/wakeup/psf/artistLogFile"
)
"modelFiles=processOption.scs,cmos53.scs:cmosws,res.scs:restm,cap.scs:capws,bip.scs:biptm,ind.scs:indtm,esddiode.scs:esddiodetm,temperature=85.0"
()
) PROP(
"#maeCorner" "CMOS_CAP_VDD_TEMP_RAMP_13"
 "#pointID" 32
"netlistDir" "../../../32/wakeup/netlist"
"dataDir" "../../../32/wakeup"
 "mcparamset" 2.000000e+00
)

"modelFiles=processOption.scs,cmos53.scs:cmoswp,res.scs:restm,cap.scs:capws,bip.scs:biptm,ind.scs:indtm,esddiode.scs:esddiodetm,temperature=85.0,mcparamset=2.0" "runObject" (
(
"../../../30/wakeup/psf/logFile"
"../../../30/wakeup/psf/artistLogFile"
)
"modelFiles=processOption.scs,cmos53.scs:cmoswp,res.scs:restm,cap.scs:capws,bip.scs:biptm,ind.scs:indtm,esddiode.scs:esddiodetm,temperature=85.0"
()
) PROP(
"#maeCorner" "CMOS_CAP_VDD_TEMP_RAMP_11"
 "#pointID" 30
"netlistDir" "../../../30/wakeup/netlist"
"dataDir" "../../../30/wakeup"
 "mcparamset" 2.000000e+00
)

"modelFiles=processOption.scs,cmos53.scs:cmoswo,res.scs:restm,cap.scs:capws,bip.scs:biptm,ind.scs:indtm,esddiode.scs:esddiodetm,temperature=85.0,mcparamset=2.0" "runObject" (
(
"../../../28/wakeup/psf/logFile"
"../../../28/wakeup/psf/artistLogFile"
)
"modelFiles=processOption.scs,cmos53.scs:cmoswo,res.scs:restm,cap.scs:capws,bip.scs:biptm,ind.scs:indtm,esddiode.scs:esddiodetm,temperature=85.0"
()
) PROP(
"#maeCorner" "CMOS_CAP_VDD_TEMP_RAMP_9"
 "#pointID" 28
"netlistDir" "../../../28/wakeup/netlist"
"dataDir" "../../../28/wakeup"
 "mcparamset" 2.000000e+00
)

"modelFiles=processOption.scs,cmos53.scs:cmoswz,res.scs:restm,cap.scs:capwp,bip.scs:biptm,ind.scs:indtm,esddiode.scs:esddiodetm,temperature=85.0,mcparamset=2.0" "runObject" (
(
"../../../26/wakeup/psf/logFile"
"../../../26/wakeup/psf/artistLogFile"
)
"modelFiles=processOption.scs,cmos53.scs:cmoswz,res.scs:restm,cap.scs:capwp,bip.scs:biptm,ind.scs:indtm,esddiode.scs:esddiodetm,temperature=85.0"
()
) PROP(
"#maeCorner" "CMOS_CAP_VDD_TEMP_RAMP_7"
 "#pointID" 26
"netlistDir" "../../../26/wakeup/netlist"
"dataDir" "../../../26/wakeup"
 "mcparamset" 2.000000e+00
)

"modelFiles=processOption.scs,cmos53.scs:cmosws,res.scs:restm,cap.scs:capwp,bip.scs:biptm,ind.scs:indtm,esddiode.scs:esddiodetm,temperature=85.0,mcparamset=2.0" "runObject" (
(
"../../../24/wakeup/psf/logFile"
"../../../24/wakeup/psf/artistLogFile"
)
"modelFiles=processOption.scs,cmos53.scs:cmosws,res.scs:restm,cap.scs:capwp,bip.scs:biptm,ind.scs:indtm,esddiode.scs:esddiodetm,temperature=85.0"
()
) PROP(
"#maeCorner" "CMOS_CAP_VDD_TEMP_RAMP_5"
 "#pointID" 24
"netlistDir" "../../../24/wakeup/netlist"
"dataDir" "../../../24/wakeup"
 "mcparamset" 2.000000e+00
)

"modelFiles=processOption.scs,cmos53.scs:cmoswp,res.scs:restm,cap.scs:capwp,bip.scs:biptm,ind.scs:indtm,esddiode.scs:esddiodetm,temperature=85.0,mcparamset=2.0" "runObject" (
(
"../../../22/wakeup/psf/logFile"
"../../../22/wakeup/psf/artistLogFile"
)
"modelFiles=processOption.scs,cmos53.scs:cmoswp,res.scs:restm,cap.scs:capwp,bip.scs:biptm,ind.scs:indtm,esddiode.scs:esddiodetm,temperature=85.0"
()
) PROP(
"#maeCorner" "CMOS_CAP_VDD_TEMP_RAMP_3"
 "#pointID" 22
"netlistDir" "../../../22/wakeup/netlist"
"dataDir" "../../../22/wakeup"
 "mcparamset" 2.000000e+00
)

"modelFiles=processOption.scs,cmos53.scs:cmoswo,res.scs:restm,cap.scs:capwp,bip.scs:biptm,ind.scs:indtm,esddiode.scs:esddiodetm,temperature=85.0,mcparamset=2.0" "runObject" (
(
"../../../20/wakeup/psf/logFile"
"../../../20/wakeup/psf/artistLogFile"
)
"modelFiles=processOption.scs,cmos53.scs:cmoswo,res.scs:restm,cap.scs:capwp,bip.scs:biptm,ind.scs:indtm,esddiode.scs:esddiodetm,temperature=85.0"
()
) PROP(
"#maeCorner" "CMOS_CAP_VDD_TEMP_RAMP_1"
 "#pointID" 20
"netlistDir" "../../../20/wakeup/netlist"
"dataDir" "../../../20/wakeup"
 "mcparamset" 2.000000e+00
)

"modelFiles=processOption.scs,cmos53.scs:cmoswz,res.scs:restm,cap.scs:capws,bip.scs:biptm,ind.scs:indtm,esddiode.scs:esddiodetm,temperature=-40.0,mcparamset=3.0" "runObject" (
(
"../../../50/wakeup/psf/logFile"
"../../../50/wakeup/psf/artistLogFile"
)
"modelFiles=processOption.scs,cmos53.scs:cmoswz,res.scs:restm,cap.scs:capws,bip.scs:biptm,ind.scs:indtm,esddiode.scs:esddiodetm,temperature=-40.0"
()
) PROP(
"#maeCorner" "CMOS_CAP_VDD_TEMP_RAMP_14"
 "#pointID" 50
"netlistDir" "../../../50/wakeup/netlist"
"dataDir" "../../../50/wakeup"
 "mcparamset" 3.000000e+00
)
