HEADER
"PSFversion" "1.00"
"design" "(\"VGA\" \"VGA_1_tb\" \"schematic\" \"\")"
"simulator" "spectre"
"temperature" "85"
"host" ""
"date" "Apr 16 10:17:33 2026"
"title" ""
"analysisList" "()"
END
