HEADER
"PSFversion" "1.00"
"design" "(\"ECG_IA\" \"ecg_tb\" \"schematic\" \"\")"
"simulator" "spectre"
"temperature" "27"
"host" ""
"date" "Mar 21 10:03:53 2026"
"title" ""
"analysisList" "()"
END
