HEADER
"PSFversion" "1.00"
"simulator" "spectre"
"version" "24.1.0.288.isr5"
"date" "10:03:55 AM, Sat Mar 21, 2026"
"design" "// Point Netlist Generated on: Mar 21 10:03:53 2026"
"analysis type" "info.subckts"
"analysis name" "subckts"
"analysis description" "Circuit Information"
"xVecSorted" "unknown"
"tolerance.relative" 1.000000000000000e-04
TYPE
"subckt" STRUCT(
"subckt_file" STRING *
"subckt_params" STRING *
"subckt_terminals" STRING *
"subckt_instances" STRING *
) PROP(
"key" "sub"
)
VALUE
"nmosw_2n" "subckt" (
"/opt/pdk/ams/410/spectre/c35/cmos53.scs 1949"
""
""
""
)
"SP031S250T" "subckt" (
"/opt/pdk/ams/410/spectre/c35/ind.scs 1419"
""
""
""
)
"modn18tnwd" "subckt" (
"/opt/pdk/ams/410/spectre/c35/cmos53.scs 1402"
""
""
""
)
"rdiffn" "subckt" (
"/opt/pdk/ams/410/spectre/c35/res.scs 106"
""
""
""
)
"SP051C300C" "subckt" (
"/opt/pdk/ams/410/spectre/c35/ind.scs 569"
""
""
""
)
"cpoly" "subckt" (
"/opt/pdk/ams/410/spectre/c35/cap.scs 29"
"mmw shkp perimeter area dmat shk"
"n1 n2"
"I4.C8<0>_turbo_m8.C0 I4.C6<0>_turbo_m2.C0 I4.C7<0>_turbo_m4.C0 I4.C4.C0 I4.C5.C0 I4.C9<0>_turbo_m3.C0"
)
"rdiffn3" "subckt" (
"/opt/pdk/ams/410/spectre/c35/res.scs 26"
""
""
""
)
"SP038S300C" "subckt" (
"/opt/pdk/ams/410/spectre/c35/ind.scs 365"
""
""
""
)
"vert10" "subckt" (
"/opt/pdk/ams/410/spectre/c35/bip.scs 118"
""
""
""
)
"SP033S150T" "subckt" (
"/opt/pdk/ams/410/spectre/c35/ind.scs 1453"
""
""
""
)
"SP024S250T" "subckt" (
"/opt/pdk/ams/410/spectre/c35/ind.scs 1385"
""
""
""
)
"SP073S250T" "subckt" (
"/opt/pdk/ams/410/spectre/c35/ind.scs 1623"
""
""
""
)
"nmosmw_3n" "subckt" (
"/opt/pdk/ams/410/spectre/c35/cmos53.scs 2305"
""
""
""
)
"SP015S250T" "subckt" (
"/opt/pdk/ams/410/spectre/c35/ind.scs 1283"
""
""
""
)
"SP040C300C" "subckt" (
"/opt/pdk/ams/410/spectre/c35/ind.scs 433"
""
""
""
)
"ecg_ia8" "subckt" (
"input.scs 168"
""
"BIAS GNDA VDDA VINN VINP VOUT CLK"
"I2"
)
"SP014S300C" "subckt" (
"/opt/pdk/ams/410/spectre/c35/ind.scs 25"
""
""
""
)
"SP047S180D" "subckt" (
"/opt/pdk/ams/410/spectre/c35/ind.scs 1147"
""
""
""
)
"SP028S300C" "subckt" (
"/opt/pdk/ams/410/spectre/c35/ind.scs 263"
""
""
""
)
"cpmim" "subckt" (
"/opt/pdk/ams/410/spectre/c35/cap.scs 105"
""
""
""
)
"cvar" "subckt" (
"/opt/pdk/ams/410/spectre/c35/cap.scs 249"
""
""
""
)
"rpolyhc" "subckt" (
"input.scs 24"
"mult mmw w cap l"
"PLUS MINUS REF"
"I4.R1"
)
"modn18t" "subckt" (
"/opt/pdk/ams/410/spectre/c35/cmos53.scs 1297"
""
""
""
)
"padvss" "subckt" (
"/opt/pdk/ams/410/spectre/c35/cap.scs 418"
""
""
""
)
"SP011S200T" "subckt" (
"/opt/pdk/ams/410/spectre/c35/ind.scs 1249"
""
""
""
)
"SP023S200C" "subckt" (
"/opt/pdk/ams/410/spectre/c35/ind.scs 127"
""
""
""
)
"nd" "subckt" (
"/opt/pdk/ams/410/spectre/c35/cmos53.scs 561"
""
""
""
)
"DI50PT" "subckt" (
"/opt/pdk/ams/410/spectre/c35/ind.scs 2067"
""
""
""
)
"rpolyz" "subckt" (
"/opt/pdk/ams/410/spectre/c35/res.scs 390"
""
""
""
)
"SP050S155C" "subckt" (
"/opt/pdk/ams/410/spectre/c35/ind.scs 535"
""
""
""
)
"sbd5" "subckt" (
"/opt/pdk/ams/410/spectre/c35/res.scs 662"
""
""
""
)
"pmosw_3n" "subckt" (
"/opt/pdk/ams/410/spectre/c35/cmos53.scs 2572"
""
""
""
)
"DI25PT" "subckt" (
"/opt/pdk/ams/410/spectre/c35/ind.scs 1822"
""
""
""
)
"modpm" "subckt" (
"/opt/pdk/ams/410/spectre/c35/cmos53.scs 378"
""
""
""
)
"pmosw_4n" "subckt" (
"/opt/pdk/ams/410/spectre/c35/cmos53.scs 2661"
""
""
""
)
"ecg_vga4" "subckt" (
"input.scs 62"
""
"BIAS GNDA S<2> S<1> S<0> VDDA VIN VOUT"
"I4"
)
"nmosw_3n" "subckt" (
"/opt/pdk/ams/410/spectre/c35/cmos53.scs 2038"
""
""
""
)
"pmosw_2n" "subckt" (
"/opt/pdk/ams/410/spectre/c35/cmos53.scs 2483"
""
""
""
)
"cmimrf" "subckt" (
"/opt/pdk/ams/410/spectre/c35/cap.scs 143"
""
""
""
)
"SP037S180D" "subckt" (
"/opt/pdk/ams/410/spectre/c35/ind.scs 1113"
""
""
""
)
"rpoly1" "subckt" (
"/opt/pdk/ams/410/spectre/c35/res.scs 168"
""
""
""
)
"SP047S250T" "subckt" (
"/opt/pdk/ams/410/spectre/c35/ind.scs 1521"
""
""
""
)
"chopper" "subckt" (
"input.scs 149"
""
"GNDA VDDA clk inn inp outn outp"
"I2.I9 I2.I8"
)
"modnhl" "subckt" (
"/opt/pdk/ams/410/spectre/c35/cmos53.scs 1077"
""
""
""
)
"SP049S300T" "subckt" (
"/opt/pdk/ams/410/spectre/c35/ind.scs 1555"
""
""
""
)
"SP068C300C" "subckt" (
"/opt/pdk/ams/410/spectre/c35/ind.scs 603"
""
""
""
)
"pmosmw_3n" "subckt" (
"/opt/pdk/ams/410/spectre/c35/cmos53.scs 2839"
""
""
""
)
"SP026S200C" "subckt" (
"/opt/pdk/ams/410/spectre/c35/ind.scs 195"
""
""
""
)
"modpd30mnwd" "subckt" (
"/opt/pdk/ams/410/spectre/c35/cmos53.scs 1658"
""
""
""
)
"modn30mjfet2" "subckt" (
"/opt/pdk/ams/410/spectre/c35/cmos53.scs 1257"
""
""
""
)
"cpolyc" "subckt" (
"input.scs 37"
"mmw perimeter area pcap"
"MINUS PLUS SUB"
"I4.C8<0>_turbo_m8 I4.C6<0>_turbo_m2 I4.C7<0>_turbo_m4 I4.C4 I4.C5 I4.C9<0>_turbo_m3"
)
"SP050S155D" "subckt" (
"/opt/pdk/ams/410/spectre/c35/ind.scs 1181"
""
""
""
)
"SY028C160C" "subckt" (
"/opt/pdk/ams/410/spectre/c35/ind.scs 977"
""
""
""
)
"modprf" "subckt" (
"/opt/pdk/ams/410/spectre/c35/cmos53.scs 3137"
""
""
""
)
"SP090S155C" "subckt" (
"/opt/pdk/ams/410/spectre/c35/ind.scs 671"
""
""
""
)
"lat2" "subckt" (
"/opt/pdk/ams/410/spectre/c35/bip.scs 31"
""
""
""
)
"ngatecap" "subckt" (
"/opt/pdk/ams/410/spectre/c35/cap.scs 221"
""
""
""
)
"esdpd18" "subckt" (
"/opt/pdk/ams/410/spectre/c35/esddiode.scs 375"
""
""
""
)
"rnwell" "subckt" (
"/opt/pdk/ams/410/spectre/c35/res.scs 204"
""
""
""
)
"SP030C200C" "subckt" (
"/opt/pdk/ams/410/spectre/c35/ind.scs 297"
""
""
""
)
"SP037S250T" "subckt" (
"/opt/pdk/ams/410/spectre/c35/ind.scs 1487"
""
""
""
)
"esdfdp5" "subckt" (
"/opt/pdk/ams/410/spectre/c35/esddiode.scs 106"
""
""
""
)
"modnmh" "subckt" (
"/opt/pdk/ams/410/spectre/c35/cmos53.scs 810"
""
""
""
)
"rdiffp" "subckt" (
"/opt/pdk/ams/410/spectre/c35/res.scs 137"
""
""
""
)
"SP021S200T" "subckt" (
"/opt/pdk/ams/410/spectre/c35/ind.scs 1351"
""
""
""
)
"SP200C200C" "subckt" (
"/opt/pdk/ams/410/spectre/c35/ind.scs 773"
""
""
""
)
"modn" "subckt" (
"/opt/pdk/ams/410/spectre/c35/cmos53.scs 24"
"ls ng ad nrs as pd w ws ps shk l nrd"
"d g s b"
"I4.MN9 I4.MN7 I4.MN17 I4.MN16 I4.MN15 I4.MN8 I4.MN4 I4.I0.MN2 I4.I0.MN1 I4.I0.MN0 I4.I1.MN2 I4.I1.MN1 I4.I1.MN0 I4.I2.MN2 I4.I2.MN1 I4.I2.MN0 I2.MN23 I2.MN24 I2.MN25 I2.MN26 I2.MN22 I2.MN21 I2.MN17 I2.MN16 I2.MN15 I2.MN14 I2.MN13 I2.MN11 I2.MN10 I2.MN9 I2.MN18 I2.MN20 I2.MN19 I2.MN7 I2.MN6 I2.MN3 I2.MN8 I2.MN2 I2.MN4 I2.MN5 I2.MN1 I2.MN0 I2.I9.MN0 I2.I9.MP3 I2.I9.MP2 I2.I9.MP1 I2.I9.MP0 I2.I8.MN0 I2.I8.MP3 I2.I8.MP2 I2.I8.MP1 I2.I8.MP0"
)
"modnm" "subckt" (
"/opt/pdk/ams/410/spectre/c35/cmos53.scs 112"
""
""
""
)
"pd" "subckt" (
"/opt/pdk/ams/410/spectre/c35/cmos53.scs 777"
""
""
""
)
"SP025C200C" "subckt" (
"/opt/pdk/ams/410/spectre/c35/ind.scs 161"
""
""
""
)
"phdnwb850" "subckt" (
"/opt/pdk/ams/410/spectre/c35/res.scs 611"
""
""
""
)
"rpolyhrf" "subckt" (
"/opt/pdk/ams/410/spectre/c35/res.scs 469"
""
""
""
)
"DI15PT" "subckt" (
"/opt/pdk/ams/410/spectre/c35/ind.scs 1724"
""
""
""
)
"esdpd30" "subckt" (
"/opt/pdk/ams/410/spectre/c35/esddiode.scs 513"
""
""
""
)
"DI40PT" "subckt" (
"/opt/pdk/ams/410/spectre/c35/ind.scs 1969"
""
""
""
)
"esdgcn5" "subckt" (
"/opt/pdk/ams/410/spectre/c35/esddiode.scs 206"
""
""
""
)
"nmosw_4n" "subckt" (
"/opt/pdk/ams/410/spectre/c35/cmos53.scs 2127"
""
""
""
)
"pmosmw_4n" "subckt" (
"/opt/pdk/ams/410/spectre/c35/cmos53.scs 2928"
""
""
""
)
"rdiffp3" "subckt" (
"/opt/pdk/ams/410/spectre/c35/res.scs 66"
""
""
""
)
"modp30mpd" "subckt" (
"/opt/pdk/ams/410/spectre/c35/cmos53.scs 1897"
""
""
""
)
"modnrf" "subckt" (
"/opt/pdk/ams/410/spectre/c35/cmos53.scs 3019"
""
""
""
)
"modnmhl" "subckt" (
"/opt/pdk/ams/410/spectre/c35/cmos53.scs 899"
""
""
""
)
"modpd30mpd" "subckt" (
"/opt/pdk/ams/410/spectre/c35/cmos53.scs 1637"
""
""
""
)
"modpl" "subckt" (
"/opt/pdk/ams/410/spectre/c35/cmos53.scs 683"
""
""
""
)
"rpoly2p" "subckt" (
"/opt/pdk/ams/410/spectre/c35/res.scs 280"
""
""
""
)
"phdnwa850" "subckt" (
"/opt/pdk/ams/410/spectre/c35/res.scs 554"
""
""
""
)
"zd2sm24" "subckt" (
"/opt/pdk/ams/410/spectre/c35/res.scs 746"
""
""
""
)
"DI35PT" "subckt" (
"/opt/pdk/ams/410/spectre/c35/ind.scs 1920"
""
""
""
)
"modn30mjfet1" "subckt" (
"/opt/pdk/ams/410/spectre/c35/cmos53.scs 1245"
""
""
""
)
"SP020S250T" "subckt" (
"/opt/pdk/ams/410/spectre/c35/ind.scs 1317"
""
""
""
)
"esdfdn5" "subckt" (
"/opt/pdk/ams/410/spectre/c35/esddiode.scs 37"
""
""
""
)
"SP045C200C" "subckt" (
"/opt/pdk/ams/410/spectre/c35/ind.scs 467"
""
""
""
)
"esdgcp5" "subckt" (
"/opt/pdk/ams/410/spectre/c35/esddiode.scs 275"
""
""
""
)
"DI55PT" "subckt" (
"/opt/pdk/ams/410/spectre/c35/ind.scs 2116"
""
""
""
)
"SP040C200C" "subckt" (
"/opt/pdk/ams/410/spectre/c35/ind.scs 399"
""
""
""
)
"SP028C200C" "subckt" (
"/opt/pdk/ams/410/spectre/c35/ind.scs 229"
""
""
""
)
"SP112C300C" "subckt" (
"/opt/pdk/ams/410/spectre/c35/ind.scs 705"
""
""
""
)
"SP014S300D" "subckt" (
"/opt/pdk/ams/410/spectre/c35/ind.scs 1011"
""
""
""
)
"modn18tjfet2" "subckt" (
"/opt/pdk/ams/410/spectre/c35/cmos53.scs 1388"
""
""
""
)
"modp30mnwd" "subckt" (
"/opt/pdk/ams/410/spectre/c35/cmos53.scs 1918"
""
""
""
)
"modnl" "subckt" (
"/opt/pdk/ams/410/spectre/c35/cmos53.scs 201"
""
""
""
)
"rpoly2" "subckt" (
"/opt/pdk/ams/410/spectre/c35/res.scs 244"
""
""
""
)
"modp" "subckt" (
"/opt/pdk/ams/410/spectre/c35/cmos53.scs 594"
"ls ng ad nrs as pd w ws ps shk l nrd"
"d g s b"
"I4.MP7 I4.MP5 I4.MP3 I4.MP8 I4.MP1 I4.MP0 I4.MP2 I4.MP4 I4.MP13 I4.MP12 I4.MP10 I4.MP9 I4.I0.MP0 I4.I1.MP0 I4.I2.MP0 I2.MP24 I2.MP23 I2.MP21 I2.MP22 I2.MP20 I2.MP19 I2.MP18 I2.MP17 I2.MP13 I2.MP14 I2.MP12 I2.MP10 I2.MP16 I2.MP15 I2.MP9 I2.MP3 I2.MP2 I2.MP4 I2.MP5 I2.MP6 I2.MP7 I2.MP8 I2.MP1 I2.MP0 I2.I9.MP4 I2.I8.MP4"
)
"nwd" "subckt" (
"/opt/pdk/ams/410/spectre/c35/res.scs 517"
""
""
""
)
"esdpd26" "subckt" (
"/opt/pdk/ams/410/spectre/c35/esddiode.scs 444"
""
""
""
)
"padvdd" "subckt" (
"/opt/pdk/ams/410/spectre/c35/cap.scs 370"
""
""
""
)
"cmim" "subckt" (
"/opt/pdk/ams/410/spectre/c35/cap.scs 66"
""
""
""
)
"modpd30m" "subckt" (
"/opt/pdk/ams/410/spectre/c35/cmos53.scs 1433"
""
""
""
)
"SP140C200C" "subckt" (
"/opt/pdk/ams/410/spectre/c35/ind.scs 739"
""
""
""
)
"SY015C200C" "subckt" (
"/opt/pdk/ams/410/spectre/c35/ind.scs 841"
""
""
""
)
"SP020S180C" "subckt" (
"/opt/pdk/ams/410/spectre/c35/ind.scs 93"
""
""
""
)
"nmosmw_4n" "subckt" (
"/opt/pdk/ams/410/spectre/c35/cmos53.scs 2394"
""
""
""
)
"modn18tjfet1" "subckt" (
"/opt/pdk/ams/410/spectre/c35/cmos53.scs 1376"
""
""
""
)
"rpoly2rf" "subckt" (
"/opt/pdk/ams/410/spectre/c35/res.scs 425"
""
""
""
)
"modn30m" "subckt" (
"/opt/pdk/ams/410/spectre/c35/cmos53.scs 1166"
""
""
""
)
"SY016C180C" "subckt" (
"/opt/pdk/ams/410/spectre/c35/ind.scs 875"
""
""
""
)
"DI60PT" "subckt" (
"/opt/pdk/ams/410/spectre/c35/ind.scs 2165"
""
""
""
)
"DI45PT" "subckt" (
"/opt/pdk/ams/410/spectre/c35/ind.scs 2018"
""
""
""
)
"modpml" "subckt" (
"/opt/pdk/ams/410/spectre/c35/cmos53.scs 467"
""
""
""
)
"SP133S300T" "subckt" (
"/opt/pdk/ams/410/spectre/c35/ind.scs 1691"
""
""
""
)
"nmosmw_2n" "subckt" (
"/opt/pdk/ams/410/spectre/c35/cmos53.scs 2216"
""
""
""
)
"SP100S250T" "subckt" (
"/opt/pdk/ams/410/spectre/c35/ind.scs 1657"
""
""
""
)
"rpoly2ph" "subckt" (
"/opt/pdk/ams/410/spectre/c35/res.scs 316"
""
""
""
)
"SP090C200C" "subckt" (
"/opt/pdk/ams/410/spectre/c35/ind.scs 637"
""
""
""
)
"modp30m" "subckt" (
"/opt/pdk/ams/410/spectre/c35/cmos53.scs 1693"
""
""
""
)
"SP060S300T" "subckt" (
"/opt/pdk/ams/410/spectre/c35/ind.scs 1589"
""
""
""
)
"SP090S155D" "subckt" (
"/opt/pdk/ams/410/spectre/c35/ind.scs 1215"
""
""
""
)
"SY017C165C" "subckt" (
"/opt/pdk/ams/410/spectre/c35/ind.scs 909"
""
""
""
)
"SY014C165C" "subckt" (
"/opt/pdk/ams/410/spectre/c35/ind.scs 807"
""
""
""
)
"pmosmw_2n" "subckt" (
"/opt/pdk/ams/410/spectre/c35/cmos53.scs 2750"
""
""
""
)
"cpolyrf" "subckt" (
"/opt/pdk/ams/410/spectre/c35/cap.scs 181"
""
""
""
)
"modnml" "subckt" (
"/opt/pdk/ams/410/spectre/c35/cmos53.scs 290"
""
""
""
)
"DI20PT" "subckt" (
"/opt/pdk/ams/410/spectre/c35/ind.scs 1773"
""
""
""
)
"rpolyh" "subckt" (
"/opt/pdk/ams/410/spectre/c35/res.scs 353"
"par lsc mmw wsc w dmat l vcr2"
"n1 n2"
"I4.R1.R1 I4.R1.R2"
)
"SP018S300C" "subckt" (
"/opt/pdk/ams/410/spectre/c35/ind.scs 59"
""
""
""
)
"SP047S180C" "subckt" (
"/opt/pdk/ams/410/spectre/c35/ind.scs 501"
""
""
""
)
"SY019C180C" "subckt" (
"/opt/pdk/ams/410/spectre/c35/ind.scs 943"
""
""
""
)
"DI30PT" "subckt" (
"/opt/pdk/ams/410/spectre/c35/ind.scs 1871"
""
""
""
)
"SP037S180C" "subckt" (
"/opt/pdk/ams/410/spectre/c35/ind.scs 331"
""
""
""
)
"mux21" "subckt" (
"input.scs 47"
""
"A0 A1 C GNDA S VDDA"
"I4.I0 I4.I1 I4.I2"
)
"SP026S200D" "subckt" (
"/opt/pdk/ams/410/spectre/c35/ind.scs 1079"
""
""
""
)
"modn30mnwd" "subckt" (
"/opt/pdk/ams/410/spectre/c35/cmos53.scs 1271"
""
""
""
)
"modnh" "subckt" (
"/opt/pdk/ams/410/spectre/c35/cmos53.scs 988"
""
""
""
)
"SP020S180D" "subckt" (
"/opt/pdk/ams/410/spectre/c35/ind.scs 1045"
""
""
""
)
END
