HEADER
"PSFversion" "1.00"
"simulator" "spectre"
"version" "24.1.0.288.isr5"
"date" "8:27:59 AM, Thur Apr 16, 2026"
"design" "// Point Netlist Generated on: Apr 16 08:27:58 2026"
"analysis type" "info"
"analysis name" "designParamVals"
"analysis description" "Circuit Information"
"xVecSorted" "unknown"
"tolerance.relative" 1.000000000000000e-04
TYPE
"top-level" STRUCT(
"temp" FLOAT DOUBLE
"tnom" FLOAT DOUBLE
"temper" FLOAT DOUBLE
"time" FLOAT DOUBLE
"temperature" FLOAT DOUBLE
"tf" FLOAT DOUBLE
"tr" FLOAT DOUBLE
"V_FREQ" FLOAT DOUBLE
"S0" FLOAT DOUBLE
"S1" FLOAT DOUBLE
"S2" FLOAT DOUBLE
"S3" FLOAT DOUBLE
"V_AMP" FLOAT DOUBLE
"VDD" FLOAT DOUBLE
"VIN_PULSE" FLOAT DOUBLE
"cj1" FLOAT DOUBLE
"cjsw1" FLOAT DOUBLE
"nsub1" FLOAT DOUBLE
"npeak1" FLOAT DOUBLE
"noia1" FLOAT DOUBLE
"noib1" FLOAT DOUBLE
"cj2" FLOAT DOUBLE
"cjsw2" FLOAT DOUBLE
"nsub2" FLOAT DOUBLE
"npeak2" FLOAT DOUBLE
"noia2" FLOAT DOUBLE
"noib2" FLOAT DOUBLE
"cj3" FLOAT DOUBLE
"cjsw3" FLOAT DOUBLE
"nsub3" FLOAT DOUBLE
"npeak3" FLOAT DOUBLE
"noia3" FLOAT DOUBLE
"noib3" FLOAT DOUBLE
"cj4" FLOAT DOUBLE
"cjsw4" FLOAT DOUBLE
"nsub4" FLOAT DOUBLE
"npeak4" FLOAT DOUBLE
"noia4" FLOAT DOUBLE
"noib4" FLOAT DOUBLE
"cj5" FLOAT DOUBLE
"cjsw5" FLOAT DOUBLE
"nsub5" FLOAT DOUBLE
"npeak5" FLOAT DOUBLE
"noia5" FLOAT DOUBLE
"noib5" FLOAT DOUBLE
"cj6" FLOAT DOUBLE
"cjsw6" FLOAT DOUBLE
"nsub6" FLOAT DOUBLE
"npeak6" FLOAT DOUBLE
"noia6" FLOAT DOUBLE
"noib6" FLOAT DOUBLE
"cj7" FLOAT DOUBLE
"cjsw7" FLOAT DOUBLE
"nsub7" FLOAT DOUBLE
"ld7" FLOAT DOUBLE
"wd7" FLOAT DOUBLE
"cj8" FLOAT DOUBLE
"cjsw8" FLOAT DOUBLE
"nsub8" FLOAT DOUBLE
"npeak8" FLOAT DOUBLE
"noia8" FLOAT DOUBLE
"noib8" FLOAT DOUBLE
"cj9" FLOAT DOUBLE
"cjsw9" FLOAT DOUBLE
"nsub9" FLOAT DOUBLE
"npeak9" FLOAT DOUBLE
"noia9" FLOAT DOUBLE
"noib9" FLOAT DOUBLE
"cj10" FLOAT DOUBLE
"cjsw10" FLOAT DOUBLE
"nsub10" FLOAT DOUBLE
"ld10" FLOAT DOUBLE
"wd10" FLOAT DOUBLE
"cj11" FLOAT DOUBLE
"cjsw11" FLOAT DOUBLE
"nsub11" FLOAT DOUBLE
"npeak11" FLOAT DOUBLE
"rhv11" FLOAT DOUBLE
"cj12" FLOAT DOUBLE
"cjsw12" FLOAT DOUBLE
"nsub12" FLOAT DOUBLE
"npeak12" FLOAT DOUBLE
"rhv12" FLOAT DOUBLE
"cj13" FLOAT DOUBLE
"cjsw13" FLOAT DOUBLE
"nsub13" FLOAT DOUBLE
"npeak13" FLOAT DOUBLE
"rhv13" FLOAT DOUBLE
"cj14" FLOAT DOUBLE
"cjsw14" FLOAT DOUBLE
"nsub14" FLOAT DOUBLE
"npeak14" FLOAT DOUBLE
"rhv14" FLOAT DOUBLE
"beta115" FLOAT DOUBLE
"beta215" FLOAT DOUBLE
"rj15" FLOAT DOUBLE
"cj15" FLOAT DOUBLE
"cjsw15" FLOAT DOUBLE
"cgdx115" FLOAT DOUBLE
"nsub15" FLOAT DOUBLE
"npeak15" FLOAT DOUBLE
"rhv15" FLOAT DOUBLE
"beta116" FLOAT DOUBLE
"beta216" FLOAT DOUBLE
"rj16" FLOAT DOUBLE
"cj16" FLOAT DOUBLE
"cjsw16" FLOAT DOUBLE
"cgdx116" FLOAT DOUBLE
"nsub16" FLOAT DOUBLE
"npeak16" FLOAT DOUBLE
"rhv16" FLOAT DOUBLE
"mueph117" FLOAT DOUBLE
"muephl17" FLOAT DOUBLE
"vfbc17" FLOAT DOUBLE
"tox17" FLOAT DOUBLE
"nsubc17" FLOAT DOUBLE
"nsubp17" FLOAT DOUBLE
"rd17" FLOAT DOUBLE
"rdvd17" FLOAT DOUBLE
"loverld17" FLOAT DOUBLE
"cgso17" FLOAT DOUBLE
"cgdo17" FLOAT DOUBLE
"cj17" FLOAT DOUBLE
"cjsw17" FLOAT DOUBLE
"mueph118" FLOAT DOUBLE
"muephl18" FLOAT DOUBLE
"vfbc18" FLOAT DOUBLE
"tox18" FLOAT DOUBLE
"nsubc18" FLOAT DOUBLE
"nsubp18" FLOAT DOUBLE
"rd18" FLOAT DOUBLE
"rdvd18" FLOAT DOUBLE
"loverld18" FLOAT DOUBLE
"cgso18" FLOAT DOUBLE
"cgdo18" FLOAT DOUBLE
"cj18" FLOAT DOUBLE
"cjsw18" FLOAT DOUBLE
"cj19" FLOAT DOUBLE
"cjsw19" FLOAT DOUBLE
"nsub19" FLOAT DOUBLE
"npeak19" FLOAT DOUBLE
"k119" FLOAT DOUBLE
"cj20" FLOAT DOUBLE
"cjsw20" FLOAT DOUBLE
"nsub20" FLOAT DOUBLE
"npeak20" FLOAT DOUBLE
"k120" FLOAT DOUBLE
"cj21" FLOAT DOUBLE
"cjsw21" FLOAT DOUBLE
"nsub21" FLOAT DOUBLE
"npeak21" FLOAT DOUBLE
"k121" FLOAT DOUBLE
"cj22" FLOAT DOUBLE
"cjsw22" FLOAT DOUBLE
"nsub22" FLOAT DOUBLE
"npeak22" FLOAT DOUBLE
"k122" FLOAT DOUBLE
"cj23" FLOAT DOUBLE
"cjsw23" FLOAT DOUBLE
"nsub23" FLOAT DOUBLE
"npeak23" FLOAT DOUBLE
"k123" FLOAT DOUBLE
"cj24" FLOAT DOUBLE
"cjsw24" FLOAT DOUBLE
"nsub24" FLOAT DOUBLE
"npeak24" FLOAT DOUBLE
"k124" FLOAT DOUBLE
"cj25" FLOAT DOUBLE
"cjsw25" FLOAT DOUBLE
"nsub25" FLOAT DOUBLE
"npeak25" FLOAT DOUBLE
"k125" FLOAT DOUBLE
"cj26" FLOAT DOUBLE
"cjsw26" FLOAT DOUBLE
"nsub26" FLOAT DOUBLE
"npeak26" FLOAT DOUBLE
"k126" FLOAT DOUBLE
"cj27" FLOAT DOUBLE
"cjsw27" FLOAT DOUBLE
"nsub27" FLOAT DOUBLE
"npeak27" FLOAT DOUBLE
"k127" FLOAT DOUBLE
"cj28" FLOAT DOUBLE
"cjsw28" FLOAT DOUBLE
"nsub28" FLOAT DOUBLE
"npeak28" FLOAT DOUBLE
"k128" FLOAT DOUBLE
"cj29" FLOAT DOUBLE
"cjsw29" FLOAT DOUBLE
"nsub29" FLOAT DOUBLE
"npeak29" FLOAT DOUBLE
"k129" FLOAT DOUBLE
"cj30" FLOAT DOUBLE
"cjsw30" FLOAT DOUBLE
"nsub30" FLOAT DOUBLE
"npeak30" FLOAT DOUBLE
"k130" FLOAT DOUBLE
"nsub31" FLOAT DOUBLE
"npeak31" FLOAT DOUBLE
"nsub32" FLOAT DOUBLE
"npeak32" FLOAT DOUBLE
"mueph133" FLOAT DOUBLE
"muephl33" FLOAT DOUBLE
"nsubc33" FLOAT DOUBLE
"nsubp33" FLOAT DOUBLE
"xw33" FLOAT DOUBLE
"lover33" FLOAT DOUBLE
"cgso33" FLOAT DOUBLE
"cgdo33" FLOAT DOUBLE
"cj33" FLOAT DOUBLE
"cjsw33" FLOAT DOUBLE
"rsh33" FLOAT DOUBLE
"clm633" FLOAT DOUBLE
"nfalp33" FLOAT DOUBLE
"nftrp33" FLOAT DOUBLE
"mueph134" FLOAT DOUBLE
"muephl34" FLOAT DOUBLE
"vfbc34" FLOAT DOUBLE
"nsubc34" FLOAT DOUBLE
"xw34" FLOAT DOUBLE
"lover34" FLOAT DOUBLE
"cgso34" FLOAT DOUBLE
"cgdo34" FLOAT DOUBLE
"cj34" FLOAT DOUBLE
"cjsw34" FLOAT DOUBLE
"rsh34" FLOAT DOUBLE
"clm634" FLOAT DOUBLE
"nfalp34" FLOAT DOUBLE
"nftrp34" FLOAT DOUBLE
"mueph135" FLOAT DOUBLE
"muephl35" FLOAT DOUBLE
"vfbc35" FLOAT DOUBLE
"nsubc35" FLOAT DOUBLE
"nsubp35" FLOAT DOUBLE
"xw35" FLOAT DOUBLE
"lover35" FLOAT DOUBLE
"cgso35" FLOAT DOUBLE
"cgdo35" FLOAT DOUBLE
"cj35" FLOAT DOUBLE
"cjsw35" FLOAT DOUBLE
"rsh35" FLOAT DOUBLE
"clm635" FLOAT DOUBLE
"nfalp35" FLOAT DOUBLE
"nftrp35" FLOAT DOUBLE
"mueph136" FLOAT DOUBLE
"muephl36" FLOAT DOUBLE
"vfbc36" FLOAT DOUBLE
"nsubc36" FLOAT DOUBLE
"nsubp36" FLOAT DOUBLE
"xw36" FLOAT DOUBLE
"lover36" FLOAT DOUBLE
"cgso36" FLOAT DOUBLE
"cgdo36" FLOAT DOUBLE
"cj36" FLOAT DOUBLE
"cjsw36" FLOAT DOUBLE
"rsh36" FLOAT DOUBLE
"clm636" FLOAT DOUBLE
"nfalp36" FLOAT DOUBLE
"nftrp36" FLOAT DOUBLE
"mueph137" FLOAT DOUBLE
"muephl37" FLOAT DOUBLE
"nsubc37" FLOAT DOUBLE
"xw37" FLOAT DOUBLE
"lover37" FLOAT DOUBLE
"cgso37" FLOAT DOUBLE
"cgdo37" FLOAT DOUBLE
"cj37" FLOAT DOUBLE
"cjsw37" FLOAT DOUBLE
"rsh37" FLOAT DOUBLE
"clm637" FLOAT DOUBLE
"nfalp37" FLOAT DOUBLE
"nftrp37" FLOAT DOUBLE
"mueph138" FLOAT DOUBLE
"muephl38" FLOAT DOUBLE
"nsubc38" FLOAT DOUBLE
"xw38" FLOAT DOUBLE
"lover38" FLOAT DOUBLE
"cgso38" FLOAT DOUBLE
"cgdo38" FLOAT DOUBLE
"cj38" FLOAT DOUBLE
"cjsw38" FLOAT DOUBLE
"rsh38" FLOAT DOUBLE
"clm638" FLOAT DOUBLE
"nfalp38" FLOAT DOUBLE
"nftrp38" FLOAT DOUBLE
"cj39" FLOAT DOUBLE
"cjsw39" FLOAT DOUBLE
"nsub39" FLOAT DOUBLE
"ld39" FLOAT DOUBLE
"wd39" FLOAT DOUBLE
"mueph140" FLOAT DOUBLE
"muephl40" FLOAT DOUBLE
"vfbc40" FLOAT DOUBLE
"nsubc40" FLOAT DOUBLE
"xw40" FLOAT DOUBLE
"lover40" FLOAT DOUBLE
"cgso40" FLOAT DOUBLE
"cgdo40" FLOAT DOUBLE
"cj40" FLOAT DOUBLE
"cjsw40" FLOAT DOUBLE
"rsh40" FLOAT DOUBLE
"clm640" FLOAT DOUBLE
"nfalp40" FLOAT DOUBLE
"nftrp40" FLOAT DOUBLE
"mueph141" FLOAT DOUBLE
"muephl41" FLOAT DOUBLE
"nsubc41" FLOAT DOUBLE
"xw41" FLOAT DOUBLE
"lover41" FLOAT DOUBLE
"cgso41" FLOAT DOUBLE
"cgdo41" FLOAT DOUBLE
"cj41" FLOAT DOUBLE
"cjsw41" FLOAT DOUBLE
"rsh41" FLOAT DOUBLE
"clm641" FLOAT DOUBLE
"nfalp41" FLOAT DOUBLE
"nftrp41" FLOAT DOUBLE
"cj42" FLOAT DOUBLE
"cjsw42" FLOAT DOUBLE
"nsub42" FLOAT DOUBLE
"ld42" FLOAT DOUBLE
"wd42" FLOAT DOUBLE
"cj43" FLOAT DOUBLE
"cjsw43" FLOAT DOUBLE
"nsub43" FLOAT DOUBLE
"npeak43" FLOAT DOUBLE
"rhv43" FLOAT DOUBLE
"cj44" FLOAT DOUBLE
"cjsw44" FLOAT DOUBLE
"nsub44" FLOAT DOUBLE
"npeak44" FLOAT DOUBLE
"rhv44" FLOAT DOUBLE
"cj45" FLOAT DOUBLE
"cjsw45" FLOAT DOUBLE
"nsub45" FLOAT DOUBLE
"npeak45" FLOAT DOUBLE
"rhv45" FLOAT DOUBLE
"cj46" FLOAT DOUBLE
"cjsw46" FLOAT DOUBLE
"nsub46" FLOAT DOUBLE
"npeak46" FLOAT DOUBLE
"rhv46" FLOAT DOUBLE
"beta147" FLOAT DOUBLE
"beta247" FLOAT DOUBLE
"rj47" FLOAT DOUBLE
"cj47" FLOAT DOUBLE
"cjsw47" FLOAT DOUBLE
"cgdx147" FLOAT DOUBLE
"nsub47" FLOAT DOUBLE
"npeak47" FLOAT DOUBLE
"rhv47" FLOAT DOUBLE
"beta148" FLOAT DOUBLE
"beta248" FLOAT DOUBLE
"rj48" FLOAT DOUBLE
"cj48" FLOAT DOUBLE
"cjsw48" FLOAT DOUBLE
"cgdx148" FLOAT DOUBLE
"nsub48" FLOAT DOUBLE
"npeak48" FLOAT DOUBLE
"rhv48" FLOAT DOUBLE
"mueph149" FLOAT DOUBLE
"muephl49" FLOAT DOUBLE
"vfbc49" FLOAT DOUBLE
"tox49" FLOAT DOUBLE
"nsubc49" FLOAT DOUBLE
"nsubp49" FLOAT DOUBLE
"rd49" FLOAT DOUBLE
"rdvd49" FLOAT DOUBLE
"loverld49" FLOAT DOUBLE
"cgso49" FLOAT DOUBLE
"cgdo49" FLOAT DOUBLE
"cj49" FLOAT DOUBLE
"cjsw49" FLOAT DOUBLE
"mueph150" FLOAT DOUBLE
"muephl50" FLOAT DOUBLE
"vfbc50" FLOAT DOUBLE
"tox50" FLOAT DOUBLE
"nsubc50" FLOAT DOUBLE
"nsubp50" FLOAT DOUBLE
"rd50" FLOAT DOUBLE
"rdvd50" FLOAT DOUBLE
"loverld50" FLOAT DOUBLE
"cgso50" FLOAT DOUBLE
"cgdo50" FLOAT DOUBLE
"cj50" FLOAT DOUBLE
"cjsw50" FLOAT DOUBLE
"cj51" FLOAT DOUBLE
"cjsw51" FLOAT DOUBLE
"nsub51" FLOAT DOUBLE
"npeak51" FLOAT DOUBLE
"k151" FLOAT DOUBLE
"cj52" FLOAT DOUBLE
"cjsw52" FLOAT DOUBLE
"nsub52" FLOAT DOUBLE
"npeak52" FLOAT DOUBLE
"k152" FLOAT DOUBLE
"cj53" FLOAT DOUBLE
"cjsw53" FLOAT DOUBLE
"nsub53" FLOAT DOUBLE
"npeak53" FLOAT DOUBLE
"k153" FLOAT DOUBLE
"cj54" FLOAT DOUBLE
"cjsw54" FLOAT DOUBLE
"nsub54" FLOAT DOUBLE
"npeak54" FLOAT DOUBLE
"k154" FLOAT DOUBLE
"cj55" FLOAT DOUBLE
"cjsw55" FLOAT DOUBLE
"nsub55" FLOAT DOUBLE
"npeak55" FLOAT DOUBLE
"k155" FLOAT DOUBLE
"cj56" FLOAT DOUBLE
"cjsw56" FLOAT DOUBLE
"nsub56" FLOAT DOUBLE
"npeak56" FLOAT DOUBLE
"k156" FLOAT DOUBLE
"cj57" FLOAT DOUBLE
"cjsw57" FLOAT DOUBLE
"nsub57" FLOAT DOUBLE
"npeak57" FLOAT DOUBLE
"k157" FLOAT DOUBLE
"cj58" FLOAT DOUBLE
"cjsw58" FLOAT DOUBLE
"nsub58" FLOAT DOUBLE
"npeak58" FLOAT DOUBLE
"k158" FLOAT DOUBLE
"cj59" FLOAT DOUBLE
"cjsw59" FLOAT DOUBLE
"nsub59" FLOAT DOUBLE
"npeak59" FLOAT DOUBLE
"k159" FLOAT DOUBLE
"cj60" FLOAT DOUBLE
"cjsw60" FLOAT DOUBLE
"nsub60" FLOAT DOUBLE
"npeak60" FLOAT DOUBLE
"k160" FLOAT DOUBLE
"cj61" FLOAT DOUBLE
"cjsw61" FLOAT DOUBLE
"nsub61" FLOAT DOUBLE
"npeak61" FLOAT DOUBLE
"k161" FLOAT DOUBLE
"cj62" FLOAT DOUBLE
"cjsw62" FLOAT DOUBLE
"nsub62" FLOAT DOUBLE
"npeak62" FLOAT DOUBLE
"k162" FLOAT DOUBLE
"nsub63" FLOAT DOUBLE
"npeak63" FLOAT DOUBLE
"nsub64" FLOAT DOUBLE
"npeak64" FLOAT DOUBLE
"rc65" FLOAT DOUBLE
"re65" FLOAT DOUBLE
"cje65" FLOAT DOUBLE
"cjc65" FLOAT DOUBLE
"mis_lat2" FLOAT DOUBLE
"mise_lat2" FLOAT DOUBLE
"misv_lat2" FLOAT DOUBLE
"rc66" FLOAT DOUBLE
"re66" FLOAT DOUBLE
"cje66" FLOAT DOUBLE
"tf66" FLOAT DOUBLE
"mis_vert10" FLOAT DOUBLE
"mbf_vert10" FLOAT DOUBLE
"mise_vert10" FLOAT DOUBLE
"cgsa67" FLOAT DOUBLE
"cgsp67" FLOAT DOUBLE
"cgda67" FLOAT DOUBLE
"cgdp67" FLOAT DOUBLE
"mr_rdiffn3" FLOAT DOUBLE
"cgsa68" FLOAT DOUBLE
"cgsp68" FLOAT DOUBLE
"cgda68" FLOAT DOUBLE
"cgdp68" FLOAT DOUBLE
"mr_rdiffp3" FLOAT DOUBLE
"cgsa69" FLOAT DOUBLE
"cgsp69" FLOAT DOUBLE
"cgda69" FLOAT DOUBLE
"cgdp69" FLOAT DOUBLE
"mr_rdiffn" FLOAT DOUBLE
"cgsa70" FLOAT DOUBLE
"cgsp70" FLOAT DOUBLE
"cgda70" FLOAT DOUBLE
"cgdp70" FLOAT DOUBLE
"mr_rdiffp" FLOAT DOUBLE
"mr_rpoly1" FLOAT DOUBLE
"cgsa72" FLOAT DOUBLE
"cgsp72" FLOAT DOUBLE
"cgda72" FLOAT DOUBLE
"cgdp72" FLOAT DOUBLE
"wd72" FLOAT DOUBLE
"mr_rnwell" FLOAT DOUBLE
"mr_rpoly2" FLOAT DOUBLE
"mr_rpoly2p" FLOAT DOUBLE
"mr_rpoly2ph" FLOAT DOUBLE
"mr_rpolyh" FLOAT DOUBLE
"rsh77" FLOAT DOUBLE
"wd77" FLOAT DOUBLE
"mr_rpolyz" FLOAT DOUBLE
"rsh78" FLOAT DOUBLE
"wd78" FLOAT DOUBLE
"cwa78" FLOAT DOUBLE
"cwp78" FLOAT DOUBLE
"cjod178" FLOAT DOUBLE
"cjod278" FLOAT DOUBLE
"rw1d78" FLOAT DOUBLE
"rw1078" FLOAT DOUBLE
"rw2d78" FLOAT DOUBLE
"rw2078" FLOAT DOUBLE
"mr_rpoly2rf" FLOAT DOUBLE
"rsh79" FLOAT DOUBLE
"wd79" FLOAT DOUBLE
"cwa79" FLOAT DOUBLE
"cwp79" FLOAT DOUBLE
"cjod179" FLOAT DOUBLE
"cjod279" FLOAT DOUBLE
"rw1d79" FLOAT DOUBLE
"rw1079" FLOAT DOUBLE
"rw2d79" FLOAT DOUBLE
"rw2079" FLOAT DOUBLE
"mr_rpolyhrf" FLOAT DOUBLE
"cgsa80" FLOAT DOUBLE
"cgsp80" FLOAT DOUBLE
"cgda80" FLOAT DOUBLE
"cgdp80" FLOAT DOUBLE
"wd80" FLOAT DOUBLE
"fdis83" FLOAT DOUBLE
"rdis83" FLOAT DOUBLE
"fdrs83" FLOAT DOUBLE
"rar83" FLOAT DOUBLE
"is83" FLOAT DOUBLE
"rc83" FLOAT DOUBLE
"bvbe83" FLOAT DOUBLE
"bvbc83" FLOAT DOUBLE
"cje83" FLOAT DOUBLE
"cjc83" FLOAT DOUBLE
"rz84" FLOAT DOUBLE
"isf84" FLOAT DOUBLE
"ca85" FLOAT DOUBLE
"cp85" FLOAT DOUBLE
"mc_cpoly" FLOAT DOUBLE
"ca86" FLOAT DOUBLE
"vc286" FLOAT DOUBLE
"mc_cmim" FLOAT DOUBLE
"ca87" FLOAT DOUBLE
"vc1a87" FLOAT DOUBLE
"vc2a87" FLOAT DOUBLE
"mc_cpmim" FLOAT DOUBLE
"cma88" FLOAT DOUBLE
"cmp88" FLOAT DOUBLE
"mc_cmimrf" FLOAT DOUBLE
"ca89" FLOAT DOUBLE
"cp89" FLOAT DOUBLE
"mr_cpolyrf" FLOAT DOUBLE
"ca90" FLOAT DOUBLE
"cp90" FLOAT DOUBLE
"nsub91" FLOAT DOUBLE
"npeak91" FLOAT DOUBLE
"mv_cvar" FLOAT DOUBLE
"mu_cvar" FLOAT DOUBLE
"cpad92" FLOAT DOUBLE
"cw1092" FLOAT DOUBLE
"cw2092" FLOAT DOUBLE
"cjod192" FLOAT DOUBLE
"cjod292" FLOAT DOUBLE
"cpad93" FLOAT DOUBLE
"cjw93" FLOAT DOUBLE
"cjod193" FLOAT DOUBLE
"cjod293" FLOAT DOUBLE
"bvr154" FLOAT DOUBLE
"isf154" FLOAT DOUBLE
"cjor154" FLOAT DOUBLE
"vbd1155" FLOAT DOUBLE
"rsd1155" FLOAT DOUBLE
"cjcpnp1155" FLOAT DOUBLE
"cjepnp2155" FLOAT DOUBLE
"ispnp1155" FLOAT DOUBLE
"ispnp2155" FLOAT DOUBLE
"nzd2155" FLOAT DOUBLE
"bvr156" FLOAT DOUBLE
"isf156" FLOAT DOUBLE
"cjor156" FLOAT DOUBLE
"vbd1157" FLOAT DOUBLE
"rsd1157" FLOAT DOUBLE
"cjcpnp1157" FLOAT DOUBLE
"cjepnp2157" FLOAT DOUBLE
"ispnp1157" FLOAT DOUBLE
"ispnp2157" FLOAT DOUBLE
"nzd2157" FLOAT DOUBLE
"bvr158" FLOAT DOUBLE
"isf158" FLOAT DOUBLE
"cjor158" FLOAT DOUBLE
"bvr159" FLOAT DOUBLE
"isf159" FLOAT DOUBLE
"cjor159" FLOAT DOUBLE
"bvr160" FLOAT DOUBLE
"isf160" FLOAT DOUBLE
"cjor160" FLOAT DOUBLE
"deltgox" FLOAT DOUBLE
"delvton" FLOAT DOUBLE
"delvtop" FLOAT DOUBLE
"deluon" FLOAT DOUBLE
"deluop" FLOAT DOUBLE
"dell" FLOAT DOUBLE
"delw" FLOAT DOUBLE
"deltgoxt" FLOAT DOUBLE
"delvtont" FLOAT DOUBLE
"delvtopt" FLOAT DOUBLE
"deluont" FLOAT DOUBLE
"deluopt" FLOAT DOUBLE
"dellt" FLOAT DOUBLE
"delwt" FLOAT DOUBLE
"deltgoxm" FLOAT DOUBLE
"delvtonm" FLOAT DOUBLE
"delvtonmh" FLOAT DOUBLE
"delvtopm" FLOAT DOUBLE
"deluonm" FLOAT DOUBLE
"deluonmh" FLOAT DOUBLE
"deluopm" FLOAT DOUBLE
"dellm" FLOAT DOUBLE
"delwm" FLOAT DOUBLE
"deltgoxtlv" FLOAT DOUBLE
"delvtontlv" FLOAT DOUBLE
"delvtoptlv" FLOAT DOUBLE
"deluontlv" FLOAT DOUBLE
"deluoptlv" FLOAT DOUBLE
"delltlv" FLOAT DOUBLE
"delwtlv" FLOAT DOUBLE
"deltgoxmlv" FLOAT DOUBLE
"delvtonmlv" FLOAT DOUBLE
"delvtopmlv" FLOAT DOUBLE
"deluonmlv" FLOAT DOUBLE
"deluopmlv" FLOAT DOUBLE
"dellmlv" FLOAT DOUBLE
"delwmlv" FLOAT DOUBLE
"deltgoxh" FLOAT DOUBLE
"delvtonh" FLOAT DOUBLE
"delvtoph" FLOAT DOUBLE
"deluonh" FLOAT DOUBLE
"deluoneh" FLOAT DOUBLE
"deluoph" FLOAT DOUBLE
"dellh" FLOAT DOUBLE
"delwh" FLOAT DOUBLE
"delrj" FLOAT DOUBLE
"delbeta" FLOAT DOUBLE
"drdiffn" FLOAT DOUBLE
"drdiffp" FLOAT DOUBLE
"drdiffnr" FLOAT DOUBLE
"drdiffps" FLOAT DOUBLE
"drpjfet" FLOAT DOUBLE
"ratiorw" FLOAT DOUBLE
"drpoly1" FLOAT DOUBLE
"dwdpoly1" FLOAT DOUBLE
"dwdpoly" FLOAT DOUBLE
"drpolyp" FLOAT DOUBLE
"dwdpoly2" FLOAT DOUBLE
"drpoly2" FLOAT DOUBLE
"drpoly2p" FLOAT DOUBLE
"drpoly2ph" FLOAT DOUBLE
"drpolyh" FLOAT DOUBLE
"dwdpolyh" FLOAT DOUBLE
"cgsdon" FLOAT DOUBLE
"cgbon" FLOAT DOUBLE
"cgsdop" FLOAT DOUBLE
"cgbop" FLOAT DOUBLE
"cgsont" FLOAT DOUBLE
"cgdont" FLOAT DOUBLE
"cgbont" FLOAT DOUBLE
"cgsonit" FLOAT DOUBLE
"cgdonit" FLOAT DOUBLE
"cgbonit" FLOAT DOUBLE
"cgsopt" FLOAT DOUBLE
"cgdopt" FLOAT DOUBLE
"cgbopt" FLOAT DOUBLE
"cgsdonm" FLOAT DOUBLE
"cgbonm" FLOAT DOUBLE
"cgsdopm" FLOAT DOUBLE
"cgbopm" FLOAT DOUBLE
"cgsonm50" FLOAT DOUBLE
"cgdonm50" FLOAT DOUBLE
"cgbonm50" FLOAT DOUBLE
"cgsonim50" FLOAT DOUBLE
"cgdonim50" FLOAT DOUBLE
"cgbonim50" FLOAT DOUBLE
"cgsopm50" FLOAT DOUBLE
"cgdopm50" FLOAT DOUBLE
"cgbopm50" FLOAT DOUBLE
"cgsdonh" FLOAT DOUBLE
"cgbonh" FLOAT DOUBLE
"cgsdoph" FLOAT DOUBLE
"cgboph" FLOAT DOUBLE
"cgsdonlv" FLOAT DOUBLE
"cgbonlv" FLOAT DOUBLE
"cgsdonmlv" FLOAT DOUBLE
"cgbonmlv" FLOAT DOUBLE
"cgsdopmlv" FLOAT DOUBLE
"cgbopmlv" FLOAT DOUBLE
"cgsdoplv" FLOAT DOUBLE
"cgboplv" FLOAT DOUBLE
"gummelbi" FLOAT DOUBLE
"recombbi" FLOAT DOUBLE
"ratiocje" FLOAT DOUBLE
"ratiocjc" FLOAT DOUBLE
"ratiocjs" FLOAT DOUBLE
"ratiorcb" FLOAT DOUBLE
"ratioreb" FLOAT DOUBLE
"extrapar" FLOAT DOUBLE
"ratiobv" FLOAT DOUBLE
"rbetabi" FLOAT DOUBLE
"recombpa" FLOAT DOUBLE
"norzener" FLOAT DOUBLE
"gummelpa" FLOAT DOUBLE
"mv_modn" FLOAT DOUBLE
"mu_modn" FLOAT DOUBLE
"mv_modnm" FLOAT DOUBLE
"mu_modnm" FLOAT DOUBLE
"mv_modnl" FLOAT DOUBLE
"mu_modnl" FLOAT DOUBLE
"mv_modnml" FLOAT DOUBLE
"mu_modnml" FLOAT DOUBLE
"mv_modpm" FLOAT DOUBLE
"mu_modpm" FLOAT DOUBLE
"mv_modpml" FLOAT DOUBLE
"mu_modpml" FLOAT DOUBLE
"mv_modp" FLOAT DOUBLE
"mu_modp" FLOAT DOUBLE
"mv_modpl" FLOAT DOUBLE
"mu_modpl" FLOAT DOUBLE
"mv_modnmh" FLOAT DOUBLE
"mu_modnmh" FLOAT DOUBLE
"mv_modnmhl" FLOAT DOUBLE
"mu_modnmhl" FLOAT DOUBLE
"mv_modnh" FLOAT DOUBLE
"mu_modnh" FLOAT DOUBLE
"mv_modnhl" FLOAT DOUBLE
"mu_modnhl" FLOAT DOUBLE
"mv_modn30m" FLOAT DOUBLE
"mu_modn30m" FLOAT DOUBLE
"mv_modn18t" FLOAT DOUBLE
"mu_modn18t" FLOAT DOUBLE
"mv_modpd30m" FLOAT DOUBLE
"mu_modpd30m" FLOAT DOUBLE
"mv_modp30m" FLOAT DOUBLE
"mu_modp30m" FLOAT DOUBLE
"mv_nmosw_2n" FLOAT DOUBLE
"mu_nmosw_2n" FLOAT DOUBLE
"mv_nmosw_3n" FLOAT DOUBLE
"mu_nmosw_3n" FLOAT DOUBLE
"mv_nmosw_4n" FLOAT DOUBLE
"mu_nmosw_4n" FLOAT DOUBLE
"mv_nmosmw_2n" FLOAT DOUBLE
"mu_nmosmw_2n" FLOAT DOUBLE
"mv_nmosmw_3n" FLOAT DOUBLE
"mu_nmosmw_3n" FLOAT DOUBLE
"mv_nmosmw_4n" FLOAT DOUBLE
"mu_nmosmw_4n" FLOAT DOUBLE
"mv_pmosw_2n" FLOAT DOUBLE
"mu_pmosw_2n" FLOAT DOUBLE
"mv_pmosw_3n" FLOAT DOUBLE
"mu_pmosw_3n" FLOAT DOUBLE
"mv_pmosw_4n" FLOAT DOUBLE
"mu_pmosw_4n" FLOAT DOUBLE
"mv_pmosmw_2n" FLOAT DOUBLE
"mu_pmosmw_2n" FLOAT DOUBLE
"mv_pmosmw_3n" FLOAT DOUBLE
"mu_pmosmw_3n" FLOAT DOUBLE
"mv_pmosmw_4n" FLOAT DOUBLE
"mu_pmosmw_4n" FLOAT DOUBLE
"mv_modnrf53" FLOAT DOUBLE
"mu_modnrf53" FLOAT DOUBLE
"mv_modprf53" FLOAT DOUBLE
"mu_modprf53" FLOAT DOUBLE
"TOPMET" FLOAT DOUBLE
"PHD_COATING" FLOAT DOUBLE
"PRIMLIB_WIP" FLOAT DOUBLE
"cmim" FLOAT DOUBLE
"cpmim" FLOAT DOUBLE
"cpmimc" FLOAT DOUBLE
"cpoly" FLOAT DOUBLE
"cpolyc" FLOAT DOUBLE
"cpolyrf" FLOAT DOUBLE
"cvar" FLOAT DOUBLE
"cvarm" FLOAT DOUBLE
"cvart" FLOAT DOUBLE
"moddpm" FLOAT DOUBLE
"esdfdn5" FLOAT DOUBLE
"esdfdp5" FLOAT DOUBLE
"esdgcn5" FLOAT DOUBLE
"esdgcp5" FLOAT DOUBLE
"esdmodn" FLOAT DOUBLE
"esdmodnm" FLOAT DOUBLE
"esdpd18" FLOAT DOUBLE
"esdpd26" FLOAT DOUBLE
"esdpd30" FLOAT DOUBLE
"esdmodp" FLOAT DOUBLE
"esmoddpm" FLOAT DOUBLE
"lat2" FLOAT DOUBLE
"modn18t" FLOAT DOUBLE
"modn30m" FLOAT DOUBLE
"modn" FLOAT DOUBLE
"modnh" FLOAT DOUBLE
"modnhl" FLOAT DOUBLE
"modnl" FLOAT DOUBLE
"modnm" FLOAT DOUBLE
"modnmh" FLOAT DOUBLE
"modnmhl" FLOAT DOUBLE
"modnml" FLOAT DOUBLE
"modnmw" FLOAT DOUBLE
"modnrf" FLOAT DOUBLE
"modnw" FLOAT DOUBLE
"nwd" FLOAT DOUBLE
"padvdd" FLOAT DOUBLE
"padvss" FLOAT DOUBLE
"pfuse" FLOAT DOUBLE
"phdnwa850" FLOAT DOUBLE
"phdnwb850" FLOAT DOUBLE
"modp30m" FLOAT DOUBLE
"modp" FLOAT DOUBLE
"modpd30m" FLOAT DOUBLE
"modpl" FLOAT DOUBLE
"modpm" FLOAT DOUBLE
"modpml" FLOAT DOUBLE
"modpmw" FLOAT DOUBLE
"modprf" FLOAT DOUBLE
"modpw" FLOAT DOUBLE
"rdiffn3" FLOAT DOUBLE
"rdiffp3" FLOAT DOUBLE
"rnwell" FLOAT DOUBLE
"rpoly1" FLOAT DOUBLE
"rpoly1c" FLOAT DOUBLE
"rpoly2" FLOAT DOUBLE
"rpoly2c" FLOAT DOUBLE
"rpoly2p" FLOAT DOUBLE
"rpoly2pc" FLOAT DOUBLE
"rpoly2ph" FLOAT DOUBLE
"rpoly2phc" FLOAT DOUBLE
"rpoly2rf" FLOAT DOUBLE
"rpolyh" FLOAT DOUBLE
"rpolyhc" FLOAT DOUBLE
"rpolyhrf" FLOAT DOUBLE
"rpolyz" FLOAT DOUBLE
"rpolyzc" FLOAT DOUBLE
"rpolyzrf" FLOAT DOUBLE
"sbd5" FLOAT DOUBLE
"subdiode" FLOAT DOUBLE
"vert10" FLOAT DOUBLE
"welldiode" FLOAT DOUBLE
"zd2sm24" FLOAT DOUBLE
"SP014S300C" FLOAT DOUBLE
"SP018S300C" FLOAT DOUBLE
"SP020S180C" FLOAT DOUBLE
"SP023S200C" FLOAT DOUBLE
"SP025C200C" FLOAT DOUBLE
"SP026S200C" FLOAT DOUBLE
"SP028C200C" FLOAT DOUBLE
"SP028S300C" FLOAT DOUBLE
"SP030C200C" FLOAT DOUBLE
"SP037S180C" FLOAT DOUBLE
"SP038S300C" FLOAT DOUBLE
"SP040C200C" FLOAT DOUBLE
"SP040C300C" FLOAT DOUBLE
"SP045C200C" FLOAT DOUBLE
"SP047S180C" FLOAT DOUBLE
"SP050S155C" FLOAT DOUBLE
"SP051C300C" FLOAT DOUBLE
"SP068C300C" FLOAT DOUBLE
"SP090C200C" FLOAT DOUBLE
"SP090S155C" FLOAT DOUBLE
"SP112C300C" FLOAT DOUBLE
"SP140C200C" FLOAT DOUBLE
"SP200C200C" FLOAT DOUBLE
"SY014C165C" FLOAT DOUBLE
"SY015C200C" FLOAT DOUBLE
"SY016C180C" FLOAT DOUBLE
"SY017C165C" FLOAT DOUBLE
"SY019C180C" FLOAT DOUBLE
"SY028C160C" FLOAT DOUBLE
"SP014S300D" FLOAT DOUBLE
"SP020S180D" FLOAT DOUBLE
"SP026S200D" FLOAT DOUBLE
"SP037S180D" FLOAT DOUBLE
"SP047S180D" FLOAT DOUBLE
"SP050S155D" FLOAT DOUBLE
"SP090S155D" FLOAT DOUBLE
"SP011S200T" FLOAT DOUBLE
"SP015S250T" FLOAT DOUBLE
"SP020S250T" FLOAT DOUBLE
"SP021S200T" FLOAT DOUBLE
"SP024S250T" FLOAT DOUBLE
"SP031S250T" FLOAT DOUBLE
"SP033S150T" FLOAT DOUBLE
"SP037S250T" FLOAT DOUBLE
"SP047S250T" FLOAT DOUBLE
"SP049S300T" FLOAT DOUBLE
"SP060S300T" FLOAT DOUBLE
"SP073S250T" FLOAT DOUBLE
"SP100S250T" FLOAT DOUBLE
"SP133S300T" FLOAT DOUBLE
"DI15PT" FLOAT DOUBLE
"DI20PT" FLOAT DOUBLE
"DI25PT" FLOAT DOUBLE
"DI30PT" FLOAT DOUBLE
"DI35PT" FLOAT DOUBLE
"DI40PT" FLOAT DOUBLE
"DI45PT" FLOAT DOUBLE
"DI50PT" FLOAT DOUBLE
"DI55PT" FLOAT DOUBLE
"DI60PT" FLOAT DOUBLE
) PROP(
"key" "parameters"
)
VALUE
"top-level" "top-level" (
2.700000000000000e+01
2.700000000000000e+01
2.700000000000000e+01
0.000000000000000e+00
2.700000000000000e+01
1.000000000000000e-09
1.000000000000000e-09
1.000000000000000e+03
3.300000000000000e+00
3.300000000000000e+00
3.300000000000000e+00
3.300000000000000e+00
0.000000000000000e+00
3.300000000000000e+00
1.000000000000000e-02
9.058239153102041e-04
2.526509841065854e-10
2.872163542516530e+17
2.777698459922503e+17
1.067719717867854e+00
1.228145428956143e+01
1.046888298027217e-03
2.489728559646756e-10
2.463894741062075e+17
2.169175592840098e+17
-4.940869721141475e-01
1.337050511500200e+01
9.244990657903254e-04
2.329757468774915e-10
1.451666788607836e+17
1.978816337593699e+17
1.927979266211192e-02
1.192666443163045e+01
3.270996006675996e-03
2.409490775782615e-10
1.730288272190839e+17
1.483682310912562e+17
8.598259209977696e-02
1.322352552070560e+01
1.276474948388990e-03
2.995609967375174e-10
1.070855450788513e+17
8.783326739785699e+16
-5.252572859360264e-01
1.055170036720668e+01
1.252448757544160e-03
4.124684604723006e-10
7.289416014065966e+16
6.347995554840078e+16
1.254906906320716e+00
1.041270306729846e+01
8.336561717772856e-04
2.610820044483990e-10
2.894277662120760e+17
-5.055849042079537e-08
8.958847118237702e-08
1.253732121180743e-03
3.474639936033636e-10
6.735853138998151e+16
9.749492438438864e+16
8.064886186066743e-01
1.125888615989835e+01
1.580555111512542e-03
3.583221049141139e-10
1.110470960780978e+17
7.636261926594824e+16
5.912490755596568e-01
1.005027769918761e+01
1.434985410952009e-03
2.888940788824111e-10
5.182068681135774e+16
-6.390146744679114e-08
2.979693201897089e-08
8.357735015451908e-05
5.468530177627690e-10
2.473582830086350e+17
2.121498019583523e+17
1.461255100168288e+03
7.552476570142899e-04
2.724186021368951e-10
1.613939445939846e+17
1.317254628448747e+17
1.368520306118764e+03
8.108477452769876e-05
5.604599668504670e-10
2.438527625404298e+17
2.550772562254220e+17
1.126965777602047e+03
9.023241179594771e-04
2.626339472481050e-10
1.577199758283794e+17
1.963946333805099e+17
1.119912473387085e+03
5.300540025001858e+00
4.793103709022514e+00
1.057040449332446e+00
7.800756231229753e-04
2.677679554326460e-10
4.007800920065493e-10
2.700915564763360e+17
2.344371570769697e+17
8.814344687069766e-03
4.152435201891699e+00
1.917661899983883e+00
1.055790477155941e+00
7.979556515347213e-04
2.991903579095379e-10
3.589346480220556e-10
1.934642589011229e+17
2.134189096819609e+17
1.025614488745667e-02
7.903115838442744e+03
1.388430821620860e-01
-4.512565950991446e-01
1.587105745822191e-08
5.826231774405110e+16
1.101681341693737e+17
6.367758220980596e-03
3.092576456082892e-02
1.059829561784863e-07
1.989656003367156e-10
3.604499460696242e-10
1.342910333120823e-03
3.529874975923448e-10
8.038561054387968e+03
1.016862045806572e+00
-4.388052016314911e-01
1.420582081563771e-08
5.531311964573618e+16
1.218324766014796e+17
6.058006275864412e-03
5.230967180637177e-02
2.549594116397202e-07
2.290013786813244e-10
3.886712876534089e-10
1.272758700653911e-03
3.714646255504340e-10
7.693091152778361e-04
2.064184125629254e-10
2.226531463041901e+17
2.098417518632179e+17
6.178723826777435e-01
9.109983504591511e-04
2.525005803909153e-10
2.155948184380308e+17
2.206005391236181e+17
5.650865881586333e-01
8.509392065971624e-04
2.413693561684341e-10
2.074782808041200e+17
2.085964744302814e+17
5.494821052789924e-01
6.497331486681943e-04
2.572448028950021e-10
1.716370391145348e+17
1.433176785746312e+17
9.753975211161489e-01
1.001370708833914e-03
1.988082173047587e-10
1.786503253426403e+17
1.429868444154346e+17
9.847139950670343e-01
6.802302127378062e-04
2.362765395082534e-10
1.654693572137505e+17
1.479051565531964e+17
9.913235767349118e-01
1.195071284826845e-03
3.331193619291298e-10
9.385441629111766e+16
9.639097113801077e+16
3.069642354052017e-01
1.669490880724043e-03
3.749088878859765e-10
9.321414090547710e+16
1.028038282377621e+17
3.565025704466979e-01
1.562726783193648e-03
3.268445066525601e-10
1.101913241055049e+17
9.707160883431155e+16
3.475791429576883e-01
1.092802500296384e-03
4.054687983589247e-10
6.769045696929098e+16
8.759461711504832e+16
5.617472568454047e-01
1.306665253788233e-03
2.769090828835033e-10
6.607143102083355e+16
8.715844421292192e+16
5.218412849400099e-01
1.252379228305072e-03
3.048592095263302e-10
6.414107846636325e+16
8.784319947639064e+16
6.012812636163238e-01
2.386093407565728e+17
2.116163042534143e+17
2.645686865882948e+17
1.277736345119774e+17
2.130860823895223e+04
-7.133636300021690e-02
2.242975485110516e+17
8.484868147768360e+17
2.268384372620285e-07
8.427256755018606e-08
7.878599577113985e-11
7.147682122677564e-11
7.442031762287021e-04
2.705119511205703e-10
7.555563216097653e+01
4.030003403011709e+00
9.135335212486214e-01
1.845185950558413e+01
2.423668281922117e+04
-3.050993603336159e-02
-1.180341905494127e+00
1.876699326395430e+17
-3.560836165398364e-10
7.325479163274168e-08
6.130767450922170e-11
6.665068730469794e-11
7.881838128179313e-04
2.689580299519003e-10
6.507457441650331e+01
5.516589215658792e+00
1.726542248428748e+00
2.012813398737148e+01
2.810790719227539e+04
-6.177614289246500e-02
-9.834470513795270e-01
1.243992054677615e+17
1.026055377870165e+18
1.517164170429856e-07
6.220201803397387e-08
6.288442489329725e-11
6.330959771353750e-11
7.815651213929057e-04
2.236575988493860e-10
7.755477312952280e+01
3.473997379991785e+00
-4.847479161133484e-01
1.821666157657444e+01
2.661116405614419e+04
3.412080575217120e-02
-1.155379879013449e+00
1.092307221912220e+17
4.242364669022057e+17
7.284982074990868e-08
9.831185739636421e-08
6.915410759262740e-11
6.942337294351310e-11
7.710367342695594e-04
2.315616929717362e-10
8.383627355098724e+01
3.903158244851231e+00
9.648488343279411e-01
1.901508925997316e+01
1.277213359881192e+04
-2.196006309883902e-01
4.877179269180726e+16
3.175241436555982e-08
3.052068727571517e-08
5.115612083261833e-11
4.312323929400184e-11
1.281535661509633e-03
3.818034773543477e-10
1.464230287214741e+02
1.456092998322100e+00
-4.527429294097011e-01
1.648460854532992e+01
1.374352010421455e+04
-2.672314605829492e-01
6.115515500754584e+16
-3.020133809000254e-09
2.106769035232253e-08
4.760086639050395e-11
5.181373258482665e-11
1.414525019016862e-03
3.444906743597239e-10
1.180249648960307e+02
1.930136492205225e+00
-2.295468166738792e-01
1.584130128817099e+01
1.044405698483344e-03
2.638677235133946e-10
3.155955566838383e+17
-4.885291862267504e-08
9.871473994767681e-08
1.007020577855594e+04
-1.633021837445814e-01
-5.416132871258073e-01
7.296548399266227e+16
1.778818657964468e-08
1.097751343977824e-08
3.175697079164907e-11
2.964497905416414e-11
1.423082722213864e-03
3.862288851439953e-10
1.216408771090209e+02
1.814025379844010e+00
-2.504321752655235e-01
1.775528571978096e+01
1.171593631764269e+04
-1.650528976609185e-01
1.031982200260228e+17
1.858223691321909e-08
8.373079470396042e-09
3.362156695604324e-11
2.778416265502572e-11
1.399906669911742e-03
3.714403929989785e-10
1.343641308462247e+02
1.852470806089975e+00
-3.313058284980623e-02
1.930768288106805e+01
1.522289359978400e-03
3.093258801163174e-10
8.182340017601848e+16
-6.889632924818988e-08
3.143428341146802e-08
6.695849541574717e-05
4.537078249035403e-10
2.435718715183437e+17
2.132287224817090e+17
1.574280723457225e+03
8.838098826503847e-04
2.854610129725188e-10
1.305746538374573e+17
1.504268876181916e+17
1.928911265696399e+03
6.788234557956457e-05
5.980308939842508e-10
2.362617211401462e+17
2.454635642530396e+17
1.334078006070107e+03
6.947212424541358e-04
3.102777192834765e-10
1.422728190805763e+17
1.342437516095117e+17
1.685438603600487e+03
5.244837872721256e+00
4.194629565260373e+00
9.568344874114264e-01
9.080052231531591e-04
2.568952478468418e-10
3.371527182669379e-10
2.335304039867595e+17
2.518778724987060e+17
6.539005852535832e-03
4.933263490091078e+00
2.220151160515845e+00
8.430542275547049e-01
1.018522536344826e-03
2.810834056581370e-10
4.115476993247867e-10
2.514898660784587e+17
1.845916813978925e+17
1.024497446349077e-02
8.766566108474230e+03
1.225733489146456e-01
-4.536436734004738e-01
1.575103109236807e-08
5.055401134093665e+16
1.154932784060668e+17
6.717400174428989e-03
6.903726020901371e-02
3.317424895986915e-07
1.910070462327450e-10
3.518193547568284e-10
1.338124706211686e-03
3.771295018736273e-10
7.422059506484867e+03
1.117711995883472e-01
-4.393883072775789e-01
1.499101477675140e-08
6.009210860979837e+16
1.184967633296549e+17
7.628938217059057e-03
2.381192073918506e-02
4.333573126606643e-07
2.128495854035020e-10
4.176559166475199e-10
1.321748959767819e-03
3.908943618722260e-10
1.030896927849390e-03
2.877297209925019e-10
2.145939579829574e+17
2.172003211985935e+17
6.309611933201389e-01
6.500554856713862e-04
2.082905048737302e-10
2.208802043419331e+17
2.164558067632306e+17
6.071228422585027e-01
1.003009564177366e-03
1.930144559009932e-10
2.100512093979865e+17
2.091151351341594e+17
5.903016881030352e-01
9.945892968855332e-04
1.978587959310971e-10
1.815731409437955e+17
1.460963224469890e+17
1.048681335766351e+00
7.277727646389976e-04
2.560940559487790e-10
1.696936686601490e+17
1.444947924702979e+17