HEADER
"PSFversion" "1.00"
"V0n" "analogLib_vdc_spectre"
"MP1n MP0n" "PRIMLIB_pmos4_spectre"
