HEADER
"PSFversion" "1.00"
"design" "(\"VGA\" \"VGA_1_pss_tb\" \"schematic\" \"\")"
"simulator" "spectre"
"temperature" "27"
"host" ""
"date" "Apr 15 12:45:06 2026"
"title" ""
"analysisList" "()"
END
