HEADER
"PSFversion" "1.00"
"design" "(\"CHARACTERIZATION\" \"GM_ID_PMOS\" \"schematic\" \"\")"
"simulator" "spectre"
"temperature" "27"
"host" ""
"date" "Mar 16 17:44:04 2026"
"title" ""
"analysisList" "()"
END
