HEADER
"PSFversion" "1.00"
"Run Generator" "drlRun rev. 1.0"
"Run Time Stamp" "Apr 16 09:35:31 2026"
"date" "Apr 16 09:35:31 2026"
"simulator" "spectre"
"netlistDir" "../netlist"
"axlParamFlag" "true"
 "externalSweepVariableCount" 3
"axlDependentVarFlag" "true"
"paramName" "#maeCorner"
 "#maeCorner_num" 17
"#maeCorner_name_1" "nom"
"#maeCorner_name_2" "CMOS_CAP_VDD_TEMP_RAMP_0"
"#maeCorner_name_3" "CMOS_CAP_VDD_TEMP_RAMP_1"
"#maeCorner_name_4" "CMOS_CAP_VDD_TEMP_RAMP_2"
"#maeCorner_name_5" "CMOS_CAP_VDD_TEMP_RAMP_3"
"#maeCorner_name_6" "CMOS_CAP_VDD_TEMP_RAMP_4"
"#maeCorner_name_7" "CMOS_CAP_VDD_TEMP_RAMP_5"
"#maeCorner_name_8" "CMOS_CAP_VDD_TEMP_RAMP_6"
"#maeCorner_name_9" "CMOS_CAP_VDD_TEMP_RAMP_7"
"#maeCorner_name_10" "CMOS_CAP_VDD_TEMP_RAMP_8"
"#maeCorner_name_11" "CMOS_CAP_VDD_TEMP_RAMP_9"
"#maeCorner_name_12" "CMOS_CAP_VDD_TEMP_RAMP_10"
"#maeCorner_name_13" "CMOS_CAP_VDD_TEMP_RAMP_11"
"#maeCorner_name_14" "CMOS_CAP_VDD_TEMP_RAMP_12"
"#maeCorner_name_15" "CMOS_CAP_VDD_TEMP_RAMP_13"
"#maeCorner_name_16" "CMOS_CAP_VDD_TEMP_RAMP_14"
"#maeCorner_name_17" "CMOS_CAP_VDD_TEMP_RAMP_15"
 "#maeCorner_param_set_num" 2
"#maeCorner_param_name_1" "modelFiles"
"#maeCorner_param_name_2" "temperature"
TYPE
"runObject" STRUCT(
"logName" ARRAY( * ) STRING *
"parent" STRING *
"sweepVariable" ARRAY( * ) STRING *
) PROP( "key" "runObject" )
VALUE
"Root" "runObject" (
("")
""
("modelFiles")
)
"modelFiles=processOption.scs,cmos53.scs:cmoswp,res.scs:restm,cap.scs:capwp,bip.scs:biptm,ind.scs:indtm,esddiode.scs:esddiodetm" "runObject" (
("")
"Root"
("temperature")
) PROP(
"modelFiles" "processOption.scs,cmos53.scs:cmoswp,res.scs:restm,cap.scs:capwp,bip.scs:biptm,ind.scs:indtm,esddiode.scs:esddiodetm"
)

"modelFiles=processOption.scs,cmos53.scs:cmoswp,res.scs:restm,cap.scs:capwp,bip.scs:biptm,ind.scs:indtm,esddiode.scs:esddiodetm,temperature=-40.0" "runObject" (
("")
"modelFiles=processOption.scs,cmos53.scs:cmoswp,res.scs:restm,cap.scs:capwp,bip.scs:biptm,ind.scs:indtm,esddiode.scs:esddiodetm"
("mcparamset")
) PROP(
 "temperature" -4.000000e+01
)

"modelFiles=processOption.scs,cmos53.scs:cmoswp,res.scs:restm,cap.scs:capwp,bip.scs:biptm,ind.scs:indtm,esddiode.scs:esddiodetm,temperature=-40.0,mcparamset=1.0" "runObject" (
(
"../../../4/wakeup/psf/logFile"
"../../../4/wakeup/psf/artistLogFile"
)
"modelFiles=processOption.scs,cmos53.scs:cmoswp,res.scs:restm,cap.scs:capwp,bip.scs:biptm,ind.scs:indtm,esddiode.scs:esddiodetm,temperature=-40.0"
()
) PROP(
"#maeCorner" "CMOS_CAP_VDD_TEMP_RAMP_2"
 "#pointID" 4
"netlistDir" "../../../4/wakeup/netlist"
"dataDir" "../../../4/wakeup"
 "mcparamset" 1.000000e+00
)

"modelFiles=processOption.scs,cmos53.scs:cmoswo,res.scs:restm,cap.scs:capwp,bip.scs:biptm,ind.scs:indtm,esddiode.scs:esddiodetm" "runObject" (
("")
"Root"
("temperature")
) PROP(
"modelFiles" "processOption.scs,cmos53.scs:cmoswo,res.scs:restm,cap.scs:capwp,bip.scs:biptm,ind.scs:indtm,esddiode.scs:esddiodetm"
)

"modelFiles=processOption.scs,cmos53.scs:cmoswo,res.scs:restm,cap.scs:capwp,bip.scs:biptm,ind.scs:indtm,esddiode.scs:esddiodetm,temperature=-40.0" "runObject" (
("")
"modelFiles=processOption.scs,cmos53.scs:cmoswo,res.scs:restm,cap.scs:capwp,bip.scs:biptm,ind.scs:indtm,esddiode.scs:esddiodetm"
("mcparamset")
) PROP(
 "temperature" -4.000000e+01
)

"modelFiles=processOption.scs,cmos53.scs:cmoswo,res.scs:restm,cap.scs:capwp,bip.scs:biptm,ind.scs:indtm,esddiode.scs:esddiodetm,temperature=-40.0,mcparamset=1.0" "runObject" (
(
"../../../2/wakeup/psf/logFile"
"../../../2/wakeup/psf/artistLogFile"
)
"modelFiles=processOption.scs,cmos53.scs:cmoswo,res.scs:restm,cap.scs:capwp,bip.scs:biptm,ind.scs:indtm,esddiode.scs:esddiodetm,temperature=-40.0"
()
) PROP(
"#maeCorner" "CMOS_CAP_VDD_TEMP_RAMP_0"
 "#pointID" 2
"netlistDir" "../../../2/wakeup/netlist"
"dataDir" "../../../2/wakeup"
 "mcparamset" 1.000000e+00
)

"modelFiles=processOption.scs,cmos53.scs:cmostm,res.scs:restm,cap.scs:captm,bip.scs:biptm,ind.scs:indtm,esddiode.scs:esddiodetm" "runObject" (
("")
"Root"
("temperature")
) PROP(
"modelFiles" "processOption.scs,cmos53.scs:cmostm,res.scs:restm,cap.scs:captm,bip.scs:biptm,ind.scs:indtm,esddiode.scs:esddiodetm"
)

"modelFiles=processOption.scs,cmos53.scs:cmostm,res.scs:restm,cap.scs:captm,bip.scs:biptm,ind.scs:indtm,esddiode.scs:esddiodetm,temperature=27.0" "runObject" (
("")
"modelFiles=processOption.scs,cmos53.scs:cmostm,res.scs:restm,cap.scs:captm,bip.scs:biptm,ind.scs:indtm,esddiode.scs:esddiodetm"
("mcparamset")
) PROP(
 "temperature" 2.700000e+01
)

"modelFiles=processOption.scs,cmos53.scs:cmostm,res.scs:restm,cap.scs:captm,bip.scs:biptm,ind.scs:indtm,esddiode.scs:esddiodetm,temperature=27.0,mcparamset=1.0" "runObject" (
(
"../../../1/wakeup/psf/logFile"
"../../../1/wakeup/psf/artistLogFile"
)
"modelFiles=processOption.scs,cmos53.scs:cmostm,res.scs:restm,cap.scs:captm,bip.scs:biptm,ind.scs:indtm,esddiode.scs:esddiodetm,temperature=27.0"
()
) PROP(
"#maeCorner" "nom"
 "#pointID" 1
"netlistDir" "../../../1/wakeup/netlist"
"dataDir" "../../../1/wakeup"
 "mcparamset" 1.000000e+00
)

"modelFiles=processOption.scs,cmos53.scs:cmoswo,res.scs:restm,cap.scs:capwp,bip.scs:biptm,ind.scs:indtm,esddiode.scs:esddiodetm,temperature=85.0" "runObject" (
("")
"modelFiles=processOption.scs,cmos53.scs:cmoswo,res.scs:restm,cap.scs:capwp,bip.scs:biptm,ind.scs:indtm,esddiode.scs:esddiodetm"
("mcparamset")
) PROP(
 "temperature" 8.500000e+01
)

"modelFiles=processOption.scs,cmos53.scs:cmoswo,res.scs:restm,cap.scs:capwp,bip.scs:biptm,ind.scs:indtm,esddiode.scs:esddiodetm,temperature=85.0,mcparamset=1.0" "runObject" (
(
"../../../3/wakeup/psf/logFile"
"../../../3/wakeup/psf/artistLogFile"
)
"modelFiles=processOption.scs,cmos53.scs:cmoswo,res.scs:restm,cap.scs:capwp,bip.scs:biptm,ind.scs:indtm,esddiode.scs:esddiodetm,temperature=85.0"
()
) PROP(
"#maeCorner" "CMOS_CAP_VDD_TEMP_RAMP_1"
 "#pointID" 3
"netlistDir" "../../../3/wakeup/netlist"
"dataDir" "../../../3/wakeup"
 "mcparamset" 1.000000e+00
)

"modelFiles=processOption.scs,cmos53.scs:cmoswp,res.scs:restm,cap.scs:capwp,bip.scs:biptm,ind.scs:indtm,esddiode.scs:esddiodetm,temperature=-40.0,mcparamset=2.0" "runObject" (
(
"../../../21/wakeup/psf/logFile"
"../../../21/wakeup/psf/artistLogFile"
)
"modelFiles=processOption.scs,cmos53.scs:cmoswp,res.scs:restm,cap.scs:capwp,bip.scs:biptm,ind.scs:indtm,esddiode.scs:esddiodetm,temperature=-40.0"
()
) PROP(
"#maeCorner" "CMOS_CAP_VDD_TEMP_RAMP_2"
 "#pointID" 21
"netlistDir" "../../../21/wakeup/netlist"
"dataDir" "../../../21/wakeup"
 "mcparamset" 2.000000e+00
)

"modelFiles=processOption.scs,cmos53.scs:cmoswo,res.scs:restm,cap.scs:capwp,bip.scs:biptm,ind.scs:indtm,esddiode.scs:esddiodetm,temperature=-40.0,mcparamset=2.0" "runObject" (
(
"../../../19/wakeup/psf/logFile"
"../../../19/wakeup/psf/artistLogFile"
)
"modelFiles=processOption.scs,cmos53.scs:cmoswo,res.scs:restm,cap.scs:capwp,bip.scs:biptm,ind.scs:indtm,esddiode.scs:esddiodetm,temperature=-40.0"
()
) PROP(
"#maeCorner" "CMOS_CAP_VDD_TEMP_RAMP_0"
 "#pointID" 19
"netlistDir" "../../../19/wakeup/netlist"
"dataDir" "../../../19/wakeup"
 "mcparamset" 2.000000e+00
)

"modelFiles=processOption.scs,cmos53.scs:cmostm,res.scs:restm,cap.scs:captm,bip.scs:biptm,ind.scs:indtm,esddiode.scs:esddiodetm,temperature=27.0,mcparamset=2.0" "runObject" (
(
"../../../18/wakeup/psf/logFile"
"../../../18/wakeup/psf/artistLogFile"
)
"modelFiles=processOption.scs,cmos53.scs:cmostm,res.scs:restm,cap.scs:captm,bip.scs:biptm,ind.scs:indtm,esddiode.scs:esddiodetm,temperature=27.0"
()
) PROP(
"#maeCorner" "nom"
 "#pointID" 18
"netlistDir" "../../../18/wakeup/netlist"
"dataDir" "../../../18/wakeup"
 "mcparamset" 2.000000e+00
)

"modelFiles=processOption.scs,cmos53.scs:cmoswo,res.scs:restm,cap.scs:capwp,bip.scs:biptm,ind.scs:indtm,esddiode.scs:esddiodetm,temperature=85.0,mcparamset=2.0" "runObject" (
(
"../../../20/wakeup/psf/logFile"
"../../../20/wakeup/psf/artistLogFile"
)
"modelFiles=processOption.scs,cmos53.scs:cmoswo,res.scs:restm,cap.scs:capwp,bip.scs:biptm,ind.scs:indtm,esddiode.scs:esddiodetm,temperature=85.0"
()
) PROP(
"#maeCorner" "CMOS_CAP_VDD_TEMP_RAMP_1"
 "#pointID" 20
"netlistDir" "../../../20/wakeup/netlist"
"dataDir" "../../../20/wakeup"
 "mcparamset" 2.000000e+00
)

"modelFiles=processOption.scs,cmos53.scs:cmoswp,res.scs:restm,cap.scs:capwp,bip.scs:biptm,ind.scs:indtm,esddiode.scs:esddiodetm,temperature=-40.0,mcparamset=3.0" "runObject" (
(
"../../../38/wakeup/psf/logFile"
"../../../38/wakeup/psf/artistLogFile"
)
"modelFiles=processOption.scs,cmos53.scs:cmoswp,res.scs:restm,cap.scs:capwp,bip.scs:biptm,ind.scs:indtm,esddiode.scs:esddiodetm,temperature=-40.0"
()
) PROP(
"#maeCorner" "CMOS_CAP_VDD_TEMP_RAMP_2"
 "#pointID" 38
"netlistDir" "../../../38/wakeup/netlist"
"dataDir" "../../../38/wakeup"
 "mcparamset" 3.000000e+00
)

"modelFiles=processOption.scs,cmos53.scs:cmoswo,res.scs:restm,cap.scs:capwp,bip.scs:biptm,ind.scs:indtm,esddiode.scs:esddiodetm,temperature=-40.0,mcparamset=3.0" "runObject" (
(
"../../../36/wakeup/psf/logFile"
"../../../36/wakeup/psf/artistLogFile"
)
"modelFiles=processOption.scs,cmos53.scs:cmoswo,res.scs:restm,cap.scs:capwp,bip.scs:biptm,ind.scs:indtm,esddiode.scs:esddiodetm,temperature=-40.0"
()
) PROP(
"#maeCorner" "CMOS_CAP_VDD_TEMP_RAMP_0"
 "#pointID" 36
"netlistDir" "../../../36/wakeup/netlist"
"dataDir" "../../../36/wakeup"
 "mcparamset" 3.000000e+00
)

"modelFiles=processOption.scs,cmos53.scs:cmostm,res.scs:restm,cap.scs:captm,bip.scs:biptm,ind.scs:indtm,esddiode.scs:esddiodetm,temperature=27.0,mcparamset=3.0" "runObject" (
(
"../../../35/wakeup/psf/logFile"
"../../../35/wakeup/psf/artistLogFile"
)
"modelFiles=processOption.scs,cmos53.scs:cmostm,res.scs:restm,cap.scs:captm,bip.scs:biptm,ind.scs:indtm,esddiode.scs:esddiodetm,temperature=27.0"
()
) PROP(
"#maeCorner" "nom"
 "#pointID" 35
"netlistDir" "../../../35/wakeup/netlist"
"dataDir" "../../../35/wakeup"
 "mcparamset" 3.000000e+00
)

"modelFiles=processOption.scs,cmos53.scs:cmoswo,res.scs:restm,cap.scs:capwp,bip.scs:biptm,ind.scs:indtm,esddiode.scs:esddiodetm,temperature=85.0,mcparamset=3.0" "runObject" (
(
"../../../37/wakeup/psf/logFile"
"../../../37/wakeup/psf/artistLogFile"
)
"modelFiles=processOption.scs,cmos53.scs:cmoswo,res.scs:restm,cap.scs:capwp,bip.scs:biptm,ind.scs:indtm,esddiode.scs:esddiodetm,temperature=85.0"
()
) PROP(
"#maeCorner" "CMOS_CAP_VDD_TEMP_RAMP_1"
 "#pointID" 37
"netlistDir" "../../../37/wakeup/netlist"
"dataDir" "../../../37/wakeup"
 "mcparamset" 3.000000e+00
)

"modelFiles=processOption.scs,cmos53.scs:cmoswp,res.scs:restm,cap.scs:capwp,bip.scs:biptm,ind.scs:indtm,esddiode.scs:esddiodetm,temperature=-40.0,mcparamset=4.0" "runObject" (
(
"../../../55/wakeup/psf/logFile"
"../../../55/wakeup/psf/artistLogFile"
)
"modelFiles=processOption.scs,cmos53.scs:cmoswp,res.scs:restm,cap.scs:capwp,bip.scs:biptm,ind.scs:indtm,esddiode.scs:esddiodetm,temperature=-40.0"
()
) PROP(
"#maeCorner" "CMOS_CAP_VDD_TEMP_RAMP_2"
 "#pointID" 55
"netlistDir" "../../../55/wakeup/netlist"
"dataDir" "../../../55/wakeup"
 "mcparamset" 4.000000e+00
)

"modelFiles=processOption.scs,cmos53.scs:cmoswo,res.scs:restm,cap.scs:capwp,bip.scs:biptm,ind.scs:indtm,esddiode.scs:esddiodetm,temperature=-40.0,mcparamset=4.0" "runObject" (
(
"../../../53/wakeup/psf/logFile"
"../../../53/wakeup/psf/artistLogFile"
)
"modelFiles=processOption.scs,cmos53.scs:cmoswo,res.scs:restm,cap.scs:capwp,bip.scs:biptm,ind.scs:indtm,esddiode.scs:esddiodetm,temperature=-40.0"
()
) PROP(
"#maeCorner" "CMOS_CAP_VDD_TEMP_RAMP_0"
 "#pointID" 53
"netlistDir" "../../../53/wakeup/netlist"
"dataDir" "../../../53/wakeup"
 "mcparamset" 4.000000e+00
)

"modelFiles=processOption.scs,cmos53.scs:cmostm,res.scs:restm,cap.scs:captm,bip.scs:biptm,ind.scs:indtm,esddiode.scs:esddiodetm,temperature=27.0,mcparamset=4.0" "runObject" (
(
"../../../52/wakeup/psf/logFile"
"../../../52/wakeup/psf/artistLogFile"
)
"modelFiles=processOption.scs,cmos53.scs:cmostm,res.scs:restm,cap.scs:captm,bip.scs:biptm,ind.scs:indtm,esddiode.scs:esddiodetm,temperature=27.0"
()
) PROP(
"#maeCorner" "nom"
 "#pointID" 52
"netlistDir" "../../../52/wakeup/netlist"
"dataDir" "../../../52/wakeup"
 "mcparamset" 4.000000e+00
)

"modelFiles=processOption.scs,cmos53.scs:cmoswo,res.scs:restm,cap.scs:capwp,bip.scs:biptm,ind.scs:indtm,esddiode.scs:esddiodetm,temperature=85.0,mcparamset=4.0" "runObject" (
(
"../../../54/wakeup/psf/logFile"
"../../../54/wakeup/psf/artistLogFile"
)
"modelFiles=processOption.scs,cmos53.scs:cmoswo,res.scs:restm,cap.scs:capwp,bip.scs:biptm,ind.scs:indtm,esddiode.scs:esddiodetm,temperature=85.0"
()
) PROP(
"#maeCorner" "CMOS_CAP_VDD_TEMP_RAMP_1"
 "#pointID" 54
"netlistDir" "../../../54/wakeup/netlist"
"dataDir" "../../../54/wakeup"
 "mcparamset" 4.000000e+00
)

"modelFiles=processOption.scs,cmos53.scs:cmoswp,res.scs:restm,cap.scs:capwp,bip.scs:biptm,ind.scs:indtm,esddiode.scs:esddiodetm,temperature=-40.0,mcparamset=5.0" "runObject" (
(
"../../../72/wakeup/psf/logFile"
"../../../72/wakeup/psf/artistLogFile"
)
"modelFiles=processOption.scs,cmos53.scs:cmoswp,res.scs:restm,cap.scs:capwp,bip.scs:biptm,ind.scs:indtm,esddiode.scs:esddiodetm,temperature=-40.0"
()
) PROP(
"#maeCorner" "CMOS_CAP_VDD_TEMP_RAMP_2"
 "#pointID" 72
"netlistDir" "../../../72/wakeup/netlist"
"dataDir" "../../../72/wakeup"
 "mcparamset" 5.000000e+00
)

"modelFiles=processOption.scs,cmos53.scs:cmoswo,res.scs:restm,cap.scs:capwp,bip.scs:biptm,ind.scs:indtm,esddiode.scs:esddiodetm,temperature=-40.0,mcparamset=5.0" "runObject" (
(
"../../../70/wakeup/psf/logFile"
"../../../70/wakeup/psf/artistLogFile"
)
"modelFiles=processOption.scs,cmos53.scs:cmoswo,res.scs:restm,cap.scs:capwp,bip.scs:biptm,ind.scs:indtm,esddiode.scs:esddiodetm,temperature=-40.0"
()
) PROP(
"#maeCorner" "CMOS_CAP_VDD_TEMP_RAMP_0"
 "#pointID" 70
"netlistDir" "../../../70/wakeup/netlist"
"dataDir" "../../../70/wakeup"
 "mcparamset" 5.000000e+00
)

"modelFiles=processOption.scs,cmos53.scs:cmostm,res.scs:restm,cap.scs:captm,bip.scs:biptm,ind.scs:indtm,esddiode.scs:esddiodetm,temperature=27.0,mcparamset=5.0" "runObject" (
(
"../../../69/wakeup/psf/logFile"
"../../../69/wakeup/psf/artistLogFile"
)
"modelFiles=processOption.scs,cmos53.scs:cmostm,res.scs:restm,cap.scs:captm,bip.scs:biptm,ind.scs:indtm,esddiode.scs:esddiodetm,temperature=27.0"
()
) PROP(
"#maeCorner" "nom"
 "#pointID" 69
"netlistDir" "../../../69/wakeup/netlist"
"dataDir" "../../../69/wakeup"
 "mcparamset" 5.000000e+00
)

"modelFiles=processOption.scs,cmos53.scs:cmoswo,res.scs:restm,cap.scs:capwp,bip.scs:biptm,ind.scs:indtm,esddiode.scs:esddiodetm,temperature=85.0,mcparamset=5.0" "runObject" (
(
"../../../71/wakeup/psf/logFile"
"../../../71/wakeup/psf/artistLogFile"
)
"modelFiles=processOption.scs,cmos53.scs:cmoswo,res.scs:restm,cap.scs:capwp,bip.scs:biptm,ind.scs:indtm,esddiode.scs:esddiodetm,temperature=85.0"
()
) PROP(
"#maeCorner" "CMOS_CAP_VDD_TEMP_RAMP_1"
 "#pointID" 71
"netlistDir" "../../../71/wakeup/netlist"
"dataDir" "../../../71/wakeup"
 "mcparamset" 5.000000e+00
)

"modelFiles=processOption.scs,cmos53.scs:cmoswp,res.scs:restm,cap.scs:capwp,bip.scs:biptm,ind.scs:indtm,esddiode.scs:esddiodetm,temperature=-40.0,mcparamset=6.0" "runObject" (
(
"../../../89/wakeup/psf/logFile"
"../../../89/wakeup/psf/artistLogFile"
)
"modelFiles=processOption.scs,cmos53.scs:cmoswp,res.scs:restm,cap.scs:capwp,bip.scs:biptm,ind.scs:indtm,esddiode.scs:esddiodetm,temperature=-40.0"
()
) PROP(
"#maeCorner" "CMOS_CAP_VDD_TEMP_RAMP_2"
 "#pointID" 89
"netlistDir" "../../../89/wakeup/netlist"
"dataDir" "../../../89/wakeup"
 "mcparamset" 6.000000e+00
)

"modelFiles=processOption.scs,cmos53.scs:cmoswo,res.scs:restm,cap.scs:capwp,bip.scs:biptm,ind.scs:indtm,esddiode.scs:esddiodetm,temperature=-40.0,mcparamset=6.0" "runObject" (
(
"../../../87/wakeup/psf/logFile"
"../../../87/wakeup/psf/artistLogFile"
)
"modelFiles=processOption.scs,cmos53.scs:cmoswo,res.scs:restm,cap.scs:capwp,bip.scs:biptm,ind.scs:indtm,esddiode.scs:esddiodetm,temperature=-40.0"
()
) PROP(
"#maeCorner" "CMOS_CAP_VDD_TEMP_RAMP_0"
 "#pointID" 87
"netlistDir" "../../../87/wakeup/netlist"
"dataDir" "../../../87/wakeup"
 "mcparamset" 6.000000e+00
)

"modelFiles=processOption.scs,cmos53.scs:cmostm,res.scs:restm,cap.scs:captm,bip.scs:biptm,ind.scs:indtm,esddiode.scs:esddiodetm,temperature=27.0,mcparamset=6.0" "runObject" (
(
"../../../86/wakeup/psf/logFile"
"../../../86/wakeup/psf/artistLogFile"
)
"modelFiles=processOption.scs,cmos53.scs:cmostm,res.scs:restm,cap.scs:captm,bip.scs:biptm,ind.scs:indtm,esddiode.scs:esddiodetm,temperature=27.0"
()
) PROP(
"#maeCorner" "nom"
 "#pointID" 86
"netlistDir" "../../../86/wakeup/netlist"
"dataDir" "../../../86/wakeup"
 "mcparamset" 6.000000e+00
)

"modelFiles=processOption.scs,cmos53.scs:cmoswo,res.scs:restm,cap.scs:capwp,bip.scs:biptm,ind.scs:indtm,esddiode.scs:esddiodetm,temperature=85.0,mcparamset=6.0" "runObject" (
(
"../../../88/wakeup/psf/logFile"
"../../../88/wakeup/psf/artistLogFile"
)
"modelFiles=processOption.scs,cmos53.scs:cmoswo,res.scs:restm,cap.scs:capwp,bip.scs:biptm,ind.scs:indtm,esddiode.scs:esddiodetm,temperature=85.0"
()
) PROP(
"#maeCorner" "CMOS_CAP_VDD_TEMP_RAMP_1"
 "#pointID" 88
"netlistDir" "../../../88/wakeup/netlist"
"dataDir" "../../../88/wakeup"
 "mcparamset" 6.000000e+00
)

"modelFiles=processOption.scs,cmos53.scs:cmoswp,res.scs:restm,cap.scs:capwp,bip.scs:biptm,ind.scs:indtm,esddiode.scs:esddiodetm,temperature=-40.0,mcparamset=7.0" "runObject" (
(
"../../../106/wakeup/psf/logFile"
"../../../106/wakeup/psf/artistLogFile"
)
"modelFiles=processOption.scs,cmos53.scs:cmoswp,res.scs:restm,cap.scs:capwp,bip.scs:biptm,ind.scs:indtm,esddiode.scs:esddiodetm,temperature=-40.0"
()
) PROP(
"#maeCorner" "CMOS_CAP_VDD_TEMP_RAMP_2"
 "#pointID" 106
"netlistDir" "../../../106/wakeup/netlist"
"dataDir" "../../../106/wakeup"
 "mcparamset" 7.000000e+00
)

"modelFiles=processOption.scs,cmos53.scs:cmoswo,res.scs:restm,cap.scs:capwp,bip.scs:biptm,ind.scs:indtm,esddiode.scs:esddiodetm,temperature=-40.0,mcparamset=7.0" "runObject" (
(
"../../../104/wakeup/psf/logFile"
"../../../104/wakeup/psf/artistLogFile"
)
"modelFiles=processOption.scs,cmos53.scs:cmoswo,res.scs:restm,cap.scs:capwp,bip.scs:biptm,ind.scs:indtm,esddiode.scs:esddiodetm,temperature=-40.0"
()
) PROP(
"#maeCorner" "CMOS_CAP_VDD_TEMP_RAMP_0"
 "#pointID" 104
"netlistDir" "../../../104/wakeup/netlist"
"dataDir" "../../../104/wakeup"
 "mcparamset" 7.000000e+00
)

"modelFiles=processOption.scs,cmos53.scs:cmostm,res.scs:restm,cap.scs:captm,bip.scs:biptm,ind.scs:indtm,esddiode.scs:esddiodetm,temperature=27.0,mcparamset=7.0" "runObject" (
(
"../../../103/wakeup/psf/logFile"
"../../../103/wakeup/psf/artistLogFile"
)
"modelFiles=processOption.scs,cmos53.scs:cmostm,res.scs:restm,cap.scs:captm,bip.scs:biptm,ind.scs:indtm,esddiode.scs:esddiodetm,temperature=27.0"
()
) PROP(
"#maeCorner" "nom"
 "#pointID" 103
"netlistDir" "../../../103/wakeup/netlist"
"dataDir" "../../../103/wakeup"
 "mcparamset" 7.000000e+00
)

"modelFiles=processOption.scs,cmos53.scs:cmoswo,res.scs:restm,cap.scs:capwp,bip.scs:biptm,ind.scs:indtm,esddiode.scs:esddiodetm,temperature=85.0,mcparamset=7.0" "runObject" (
(
"../../../105/wakeup/psf/logFile"
"../../../105/wakeup/psf/artistLogFile"
)
"modelFiles=processOption.scs,cmos53.scs:cmoswo,res.scs:restm,cap.scs:capwp,bip.scs:biptm,ind.scs:indtm,esddiode.scs:esddiodetm,temperature=85.0"
()
) PROP(
"#maeCorner" "CMOS_CAP_VDD_TEMP_RAMP_1"
 "#pointID" 105
"netlistDir" "../../../105/wakeup/netlist"
"dataDir" "../../../105/wakeup"
 "mcparamset" 7.000000e+00
)

"modelFiles=processOption.scs,cmos53.scs:cmoswp,res.scs:restm,cap.scs:capwp,bip.scs:biptm,ind.scs:indtm,esddiode.scs:esddiodetm,temperature=-40.0,mcparamset=8.0" "runObject" (
(
"../../../123/wakeup/psf/logFile"
"../../../123/wakeup/psf/artistLogFile"
)
"modelFiles=processOption.scs,cmos53.scs:cmoswp,res.scs:restm,cap.scs:capwp,bip.scs:biptm,ind.scs:indtm,esddiode.scs:esddiodetm,temperature=-40.0"
()
) PROP(
"#maeCorner" "CMOS_CAP_VDD_TEMP_RAMP_2"
 "#pointID" 123
"netlistDir" "../../../123/wakeup/netlist"
"dataDir" "../../../123/wakeup"
 "mcparamset" 8.000000e+00
)

"modelFiles=processOption.scs,cmos53.scs:cmoswo,res.scs:restm,cap.scs:capwp,bip.scs:biptm,ind.scs:indtm,esddiode.scs:esddiodetm,temperature=-40.0,mcparamset=8.0" "runObject" (
(
"../../../121/wakeup/psf/logFile"
"../../../121/wakeup/psf/artistLogFile"
)
"modelFiles=processOption.scs,cmos53.scs:cmoswo,res.scs:restm,cap.scs:capwp,bip.scs:biptm,ind.scs:indtm,esddiode.scs:esddiodetm,temperature=-40.0"
()
) PROP(
"#maeCorner" "CMOS_CAP_VDD_TEMP_RAMP_0"
 "#pointID" 121
"netlistDir" "../../../121/wakeup/netlist"
"dataDir" "../../../121/wakeup"
 "mcparamset" 8.000000e+00
)

"modelFiles=processOption.scs,cmos53.scs:cmostm,res.scs:restm,cap.scs:captm,bip.scs:biptm,ind.scs:indtm,esddiode.scs:esddiodetm,temperature=27.0,mcparamset=8.0" "runObject" (
(
"../../../120/wakeup/psf/logFile"
"../../../120/wakeup/psf/artistLogFile"
)
"modelFiles=processOption.scs,cmos53.scs:cmostm,res.scs:restm,cap.scs:captm,bip.scs:biptm,ind.scs:indtm,esddiode.scs:esddiodetm,temperature=27.0"
()
) PROP(
"#maeCorner" "nom"
 "#pointID" 120
"netlistDir" "../../../120/wakeup/netlist"
"dataDir" "../../../120/wakeup"
 "mcparamset" 8.000000e+00
)

"modelFiles=processOption.scs,cmos53.scs:cmoswo,res.scs:restm,cap.scs:capwp,bip.scs:biptm,ind.scs:indtm,esddiode.scs:esddiodetm,temperature=85.0,mcparamset=8.0" "runObject" (
(
"../../../122/wakeup/psf/logFile"
"../../../122/wakeup/psf/artistLogFile"
)
"modelFiles=processOption.scs,cmos53.scs:cmoswo,res.scs:restm,cap.scs:capwp,bip.scs:biptm,ind.scs:indtm,esddiode.scs:esddiodetm,temperature=85.0"
()
) PROP(
"#maeCorner" "CMOS_CAP_VDD_TEMP_RAMP_1"
 "#pointID" 122
"netlistDir" "../../../122/wakeup/netlist"
"dataDir" "../../../122/wakeup"
 "mcparamset" 8.000000e+00
)

"modelFiles=processOption.scs,cmos53.scs:cmoswp,res.scs:restm,cap.scs:capwp,bip.scs:biptm,ind.scs:indtm,esddiode.scs:esddiodetm,temperature=-40.0,mcparamset=9.0" "runObject" (
(
"../../../140/wakeup/psf/logFile"
"../../../140/wakeup/psf/artistLogFile"
)
"modelFiles=processOption.scs,cmos53.scs:cmoswp,res.scs:restm,cap.scs:capwp,bip.scs:biptm,ind.scs:indtm,esddiode.scs:esddiodetm,temperature=-40.0"
()
) PROP(
"#maeCorner" "CMOS_CAP_VDD_TEMP_RAMP_2"
 "#pointID" 140
"netlistDir" "../../../140/wakeup/netlist"
"dataDir" "../../../140/wakeup"
 "mcparamset" 9.000000e+00
)

"modelFiles=processOption.scs,cmos53.scs:cmoswo,res.scs:restm,cap.scs:capwp,bip.scs:biptm,ind.scs:indtm,esddiode.scs:esddiodetm,temperature=-40.0,mcparamset=9.0" "runObject" (
(
"../../../138/wakeup/psf/logFile"
"../../../138/wakeup/psf/artistLogFile"
)
"modelFiles=processOption.scs,cmos53.scs:cmoswo,res.scs:restm,cap.scs:capwp,bip.scs:biptm,ind.scs:indtm,esddiode.scs:esddiodetm,temperature=-40.0"
()
) PROP(
"#maeCorner" "CMOS_CAP_VDD_TEMP_RAMP_0"
 "#pointID" 138
"netlistDir" "../../../138/wakeup/netlist"
"dataDir" "../../../138/wakeup"
 "mcparamset" 9.000000e+00
)

"modelFiles=processOption.scs,cmos53.scs:cmostm,res.scs:restm,cap.scs:captm,bip.scs:biptm,ind.scs:indtm,esddiode.scs:esddiodetm,temperature=27.0,mcparamset=9.0" "runObject" (
(
"../../../137/wakeup/psf/logFile"
"../../../137/wakeup/psf/artistLogFile"
)
"modelFiles=processOption.scs,cmos53.scs:cmostm,res.scs:restm,cap.scs:captm,bip.scs:biptm,ind.scs:indtm,esddiode.scs:esddiodetm,temperature=27.0"
()
) PROP(
"#maeCorner" "nom"
 "#pointID" 137
"netlistDir" "../../../137/wakeup/netlist"
"dataDir" "../../../137/wakeup"
 "mcparamset" 9.000000e+00
)

"modelFiles=processOption.scs,cmos53.scs:cmoswo,res.scs:restm,cap.scs:capwp,bip.scs:biptm,ind.scs:indtm,esddiode.scs:esddiodetm,temperature=85.0,mcparamset=9.0" "runObject" (
(
"../../../139/wakeup/psf/logFile"
"../../../139/wakeup/psf/artistLogFile"
)
"modelFiles=processOption.scs,cmos53.scs:cmoswo,res.scs:restm,cap.scs:capwp,bip.scs:biptm,ind.scs:indtm,esddiode.scs:esddiodetm,temperature=85.0"
()
) PROP(
"#maeCorner" "CMOS_CAP_VDD_TEMP_RAMP_1"
 "#pointID" 139
"netlistDir" "../../../139/wakeup/netlist"
"dataDir" "../../../139/wakeup"
 "mcparamset" 9.000000e+00
)

"modelFiles=processOption.scs,cmos53.scs:cmoswp,res.scs:restm,cap.scs:capwp,bip.scs:biptm,ind.scs:indtm,esddiode.scs:esddiodetm,temperature=-40.0,mcparamset=10.0" "runObject" (
(
"../../../157/wakeup/psf/logFile"
"../../../157/wakeup/psf/artistLogFile"
)
"modelFiles=processOption.scs,cmos53.scs:cmoswp,res.scs:restm,cap.scs:capwp,bip.scs:biptm,ind.scs:indtm,esddiode.scs:esddiodetm,temperature=-40.0"
()
) PROP(
"#maeCorner" "CMOS_CAP_VDD_TEMP_RAMP_2"
 "#pointID" 157
"netlistDir" "../../../157/wakeup/netlist"
"dataDir" "../../../157/wakeup"
 "mcparamset" 1.000000e+01
)

"modelFiles=processOption.scs,cmos53.scs:cmoswo,res.scs:restm,cap.scs:capwp,bip.scs:biptm,ind.scs:indtm,esddiode.scs:esddiodetm,temperature=-40.0,mcparamset=10.0" "runObject" (
(
"../../../155/wakeup/psf/logFile"
"../../../155/wakeup/psf/artistLogFile"
)
"modelFiles=processOption.scs,cmos53.scs:cmoswo,res.scs:restm,cap.scs:capwp,bip.scs:biptm,ind.scs:indtm,esddiode.scs:esddiodetm,temperature=-40.0"
()
) PROP(
"#maeCorner" "CMOS_CAP_VDD_TEMP_RAMP_0"
 "#pointID" 155
"netlistDir" "../../../155/wakeup/netlist"
"dataDir" "../../../155/wakeup"
 "mcparamset" 1.000000e+01
)

"modelFiles=processOption.scs,cmos53.scs:cmostm,res.scs:restm,cap.scs:captm,bip.scs:biptm,ind.scs:indtm,esddiode.scs:esddiodetm,temperature=27.0,mcparamset=10.0" "runObject" (
(
"../../../154/wakeup/psf/logFile"
"../../../154/wakeup/psf/artistLogFile"
)
"modelFiles=processOption.scs,cmos53.scs:cmostm,res.scs:restm,cap.scs:captm,bip.scs:biptm,ind.scs:indtm,esddiode.scs:esddiodetm,temperature=27.0"
()
) PROP(
"#maeCorner" "nom"
 "#pointID" 154
"netlistDir" "../../../154/wakeup/netlist"
"dataDir" "../../../154/wakeup"
 "mcparamset" 1.000000e+01
)

"modelFiles=processOption.scs,cmos53.scs:cmoswo,res.scs:restm,cap.scs:capwp,bip.scs:biptm,ind.scs:indtm,esddiode.scs:esddiodetm,temperature=85.0,mcparamset=10.0" "runObject" (
(
"../../../156/wakeup/psf/logFile"
"../../../156/wakeup/psf/artistLogFile"
)
"modelFiles=processOption.scs,cmos53.scs:cmoswo,res.scs:restm,cap.scs:capwp,bip.scs:biptm,ind.scs:indtm,esddiode.scs:esddiodetm,temperature=85.0"
()
) PROP(
"#maeCorner" "CMOS_CAP_VDD_TEMP_RAMP_1"
 "#pointID" 156
"netlistDir" "../../../156/wakeup/netlist"
"dataDir" "../../../156/wakeup"
 "mcparamset" 1.000000e+01
)

"modelFiles=processOption.scs,cmos53.scs:cmoswp,res.scs:restm,cap.scs:capwp,bip.scs:biptm,ind.scs:indtm,esddiode.scs:esddiodetm,temperature=-40.0,mcparamset=11.0" "runObject" (
(
"../../../174/wakeup/psf/logFile"
"../../../174/wakeup/psf/artistLogFile"
)
"modelFiles=processOption.scs,cmos53.scs:cmoswp,res.scs:restm,cap.scs:capwp,bip.scs:biptm,ind.scs:indtm,esddiode.scs:esddiodetm,temperature=-40.0"
()
) PROP(
"#maeCorner" "CMOS_CAP_VDD_TEMP_RAMP_2"
 "#pointID" 174
"netlistDir" "../../../174/wakeup/netlist"
"dataDir" "../../../174/wakeup"
 "mcparamset" 1.100000e+01
)

"modelFiles=processOption.scs,cmos53.scs:cmoswo,res.scs:restm,cap.scs:capwp,bip.scs:biptm,ind.scs:indtm,esddiode.scs:esddiodetm,temperature=-40.0,mcparamset=11.0" "runObject" (
(
"../../../172/wakeup/psf/logFile"
"../../../172/wakeup/psf/artistLogFile"
)
"modelFiles=processOption.scs,cmos53.scs:cmoswo,res.scs:restm,cap.scs:capwp,bip.scs:biptm,ind.scs:indtm,esddiode.scs:esddiodetm,temperature=-40.0"
()
) PROP(
"#maeCorner" "CMOS_CAP_VDD_TEMP_RAMP_0"
 "#pointID" 172
"netlistDir" "../../../172/wakeup/netlist"
"dataDir" "../../../172/wakeup"
 "mcparamset" 1.100000e+01
)

"modelFiles=processOption.scs,cmos53.scs:cmostm,res.scs:restm,cap.scs:captm,bip.scs:biptm,ind.scs:indtm,esddiode.scs:esddiodetm,temperature=27.0,mcparamset=11.0" "runObject" (
(
"../../../171/wakeup/psf/logFile"
"../../../171/wakeup/psf/artistLogFile"
)
"modelFiles=processOption.scs,cmos53.scs:cmostm,res.scs:restm,cap.scs:captm,bip.scs:biptm,ind.scs:indtm,esddiode.scs:esddiodetm,temperature=27.0"
()
) PROP(
"#maeCorner" "nom"
 "#pointID" 171
"netlistDir" "../../../171/wakeup/netlist"
"dataDir" "../../../171/wakeup"
 "mcparamset" 1.100000e+01
)

"modelFiles=processOption.scs,cmos53.scs:cmoswo,res.scs:restm,cap.scs:capwp,bip.scs:biptm,ind.scs:indtm,esddiode.scs:esddiodetm,temperature=85.0,mcparamset=11.0" "runObject" (
(
"../../../173/wakeup/psf/logFile"
"../../../173/wakeup/psf/artistLogFile"
)
"modelFiles=processOption.scs,cmos53.scs:cmoswo,res.scs:restm,cap.scs:capwp,bip.scs:biptm,ind.scs:indtm,esddiode.scs:esddiodetm,temperature=85.0"
()
) PROP(
"#maeCorner" "CMOS_CAP_VDD_TEMP_RAMP_1"
 "#pointID" 173
"netlistDir" "../../../173/wakeup/netlist"
"dataDir" "../../../173/wakeup"
 "mcparamset" 1.100000e+01
)

"modelFiles=processOption.scs,cmos53.scs:cmoswp,res.scs:restm,cap.scs:capwp,bip.scs:biptm,ind.scs:indtm,esddiode.scs:esddiodetm,temperature=-40.0,mcparamset=12.0" "runObject" (
(
"../../../191/wakeup/psf/logFile"
"../../../191/wakeup/psf/artistLogFile"
)
"modelFiles=processOption.scs,cmos53.scs:cmoswp,res.scs:restm,cap.scs:capwp,bip.scs:biptm,ind.scs:indtm,esddiode.scs:esddiodetm,temperature=-40.0"
()
) PROP(
"#maeCorner" "CMOS_CAP_VDD_TEMP_RAMP_2"
 "#pointID" 191
"netlistDir" "../../../191/wakeup/netlist"
"dataDir" "../../../191/wakeup"
 "mcparamset" 1.200000e+01
)

"modelFiles=processOption.scs,cmos53.scs:cmoswo,res.scs:restm,cap.scs:capwp,bip.scs:biptm,ind.scs:indtm,esddiode.scs:esddiodetm,temperature=-40.0,mcparamset=12.0" "runObject" (
(
"../../../189/wakeup/psf/logFile"
"../../../189/wakeup/psf/artistLogFile"
)
"modelFiles=processOption.scs,cmos53.scs:cmoswo,res.scs:restm,cap.scs:capwp,bip.scs:biptm,ind.scs:indtm,esddiode.scs:esddiodetm,temperature=-40.0"
()
) PROP(
"#maeCorner" "CMOS_CAP_VDD_TEMP_RAMP_0"
 "#pointID" 189
"netlistDir" "../../../189/wakeup/netlist"
"dataDir" "../../../189/wakeup"
 "mcparamset" 1.200000e+01
)

"modelFiles=processOption.scs,cmos53.scs:cmostm,res.scs:restm,cap.scs:captm,bip.scs:biptm,ind.scs:indtm,esddiode.scs:esddiodetm,temperature=27.0,mcparamset=12.0" "runObject" (
(
"../../../188/wakeup/psf/logFile"
"../../../188/wakeup/psf/artistLogFile"
)