HEADER
"PSFversion" "1.00"
"simulator" "spectre"
"version" "24.1.0.288.isr5"
"date" "2:15:58 PM, Thur Feb 26, 2026"
"design" "// Generated for: spectre"
"analysis type" "info.primitives"
"analysis name" "primitives"
"analysis description" "Circuit Information"
"xVecSorted" "unknown"
"tolerance.relative" 1.000000000000000e-04
TYPE
"primitive" STRUCT(
"model" STRING *
"oppoint" STRING *
"output" STRING *
"inst" STRING *
"region" STRING *
"terminals" STRING *
) PROP(
"key" "prim"
)
VALUE
"assert" "primitive" (
""
""
""
"sub subs mod dev primitive skip_dev_inside_subckt expr modelparam param max min duration message level info values boolean anal_types check_windows maxvio_perinst maxvio_all group safecheck extreme max_peak min_peak "
""
""
)
END
