HEADER
"PSFversion" "1.00"
"design" "(\"VGA\" \"VGA_tb\" \"schematic\" \"\")"
"simulator" "spectre"
"temperature" "27"
"host" ""
"date" "Feb 26 14:15:56 2026"
"title" ""
"analysisList" "()"
END
