HEADER
"PSFversion" "1.00"
"MN9n MN7n MN17n MN16n MN15n MN8n MN4n" "PRIMLIB_nmos4_spectre"
"R1n" "rpolyhc"
"C8<0>n C8<1>n C8<2>n C8<3>n C8<4>n C8<5>n C8<6>n C8<7>n C6<0>n C6<1>n C7<0>n C7<1>n C7<2>n C7<3>n C4n C5n C9<0>n C9<1>n C9<2>n" "cpolyc"
"MP7n MP5n MP3n MP8n MP1n MP0n MP2n MP4n MP13n MP12n MP10n MP9n" "PRIMLIB_pmos4_spectre"
"I0n I1n I2n" "mux21"
"BIASv" ":1v"
"GNDAv" ":2v"
"S<2>v" ":3v"
"S<1>v" ":4v"
"S<0>v" ":5v"
"VDDAv" ":6v"
"VINv" ":7v"
"VOUTv" ":8v"
