HEADER
"PSFversion" "1.00"
"simulator" "spectre"
"version" "24.1.0.288.isr5"
"date" "9:06:21 AM, Thur Apr 16, 2026"
"design" "// Point Netlist Generated on: Apr 16 09:06:19 2026"
"analysis type" "info"
"analysis name" "designParamVals"
"analysis description" "Circuit Information"
"xVecSorted" "unknown"
"tolerance.relative" 1.000000000000000e-04
TYPE
"top-level" STRUCT(
"temp" FLOAT DOUBLE
"tnom" FLOAT DOUBLE
"temper" FLOAT DOUBLE
"time" FLOAT DOUBLE
"temperature" FLOAT DOUBLE
"tf" FLOAT DOUBLE
"tr" FLOAT DOUBLE
"V_FREQ" FLOAT DOUBLE
"S0" FLOAT DOUBLE
"S1" FLOAT DOUBLE
"S2" FLOAT DOUBLE
"S3" FLOAT DOUBLE
"V_AMP" FLOAT DOUBLE
"VDD" FLOAT DOUBLE
"VIN_PULSE" FLOAT DOUBLE
"cj1" FLOAT DOUBLE
"cjsw1" FLOAT DOUBLE
"nsub1" FLOAT DOUBLE
"npeak1" FLOAT DOUBLE
"noia1" FLOAT DOUBLE
"noib1" FLOAT DOUBLE
"cj2" FLOAT DOUBLE
"cjsw2" FLOAT DOUBLE
"nsub2" FLOAT DOUBLE
"npeak2" FLOAT DOUBLE
"noia2" FLOAT DOUBLE
"noib2" FLOAT DOUBLE
"cj3" FLOAT DOUBLE
"cjsw3" FLOAT DOUBLE
"nsub3" FLOAT DOUBLE
"npeak3" FLOAT DOUBLE
"noia3" FLOAT DOUBLE
"noib3" FLOAT DOUBLE
"cj4" FLOAT DOUBLE
"cjsw4" FLOAT DOUBLE
"nsub4" FLOAT DOUBLE
"npeak4" FLOAT DOUBLE
"noia4" FLOAT DOUBLE
"noib4" FLOAT DOUBLE
"cj5" FLOAT DOUBLE
"cjsw5" FLOAT DOUBLE
"nsub5" FLOAT DOUBLE
"npeak5" FLOAT DOUBLE
"noia5" FLOAT DOUBLE
"noib5" FLOAT DOUBLE
"cj6" FLOAT DOUBLE
"cjsw6" FLOAT DOUBLE
"nsub6" FLOAT DOUBLE
"npeak6" FLOAT DOUBLE
"noia6" FLOAT DOUBLE
"noib6" FLOAT DOUBLE
"cj7" FLOAT DOUBLE
"cjsw7" FLOAT DOUBLE
"nsub7" FLOAT DOUBLE
"ld7" FLOAT DOUBLE
"wd7" FLOAT DOUBLE
"cj8" FLOAT DOUBLE
"cjsw8" FLOAT DOUBLE
"nsub8" FLOAT DOUBLE
"npeak8" FLOAT DOUBLE
"noia8" FLOAT DOUBLE
"noib8" FLOAT DOUBLE
"cj9" FLOAT DOUBLE
"cjsw9" FLOAT DOUBLE
"nsub9" FLOAT DOUBLE
"npeak9" FLOAT DOUBLE
"noia9" FLOAT DOUBLE
"noib9" FLOAT DOUBLE
"cj10" FLOAT DOUBLE
"cjsw10" FLOAT DOUBLE
"nsub10" FLOAT DOUBLE
"ld10" FLOAT DOUBLE
"wd10" FLOAT DOUBLE
"cj11" FLOAT DOUBLE
"cjsw11" FLOAT DOUBLE
"nsub11" FLOAT DOUBLE
"npeak11" FLOAT DOUBLE
"rhv11" FLOAT DOUBLE
"cj12" FLOAT DOUBLE
"cjsw12" FLOAT DOUBLE
"nsub12" FLOAT DOUBLE
"npeak12" FLOAT DOUBLE
"rhv12" FLOAT DOUBLE
"cj13" FLOAT DOUBLE
"cjsw13" FLOAT DOUBLE
"nsub13" FLOAT DOUBLE
"npeak13" FLOAT DOUBLE
"rhv13" FLOAT DOUBLE
"cj14" FLOAT DOUBLE
"cjsw14" FLOAT DOUBLE
"nsub14" FLOAT DOUBLE
"npeak14" FLOAT DOUBLE
"rhv14" FLOAT DOUBLE
"beta115" FLOAT DOUBLE
"beta215" FLOAT DOUBLE
"rj15" FLOAT DOUBLE
"cj15" FLOAT DOUBLE
"cjsw15" FLOAT DOUBLE
"cgdx115" FLOAT DOUBLE
"nsub15" FLOAT DOUBLE
"npeak15" FLOAT DOUBLE
"rhv15" FLOAT DOUBLE
"beta116" FLOAT DOUBLE
"beta216" FLOAT DOUBLE
"rj16" FLOAT DOUBLE
"cj16" FLOAT DOUBLE
"cjsw16" FLOAT DOUBLE
"cgdx116" FLOAT DOUBLE
"nsub16" FLOAT DOUBLE
"npeak16" FLOAT DOUBLE
"rhv16" FLOAT DOUBLE
"mueph117" FLOAT DOUBLE
"muephl17" FLOAT DOUBLE
"vfbc17" FLOAT DOUBLE
"tox17" FLOAT DOUBLE
"nsubc17" FLOAT DOUBLE
"nsubp17" FLOAT DOUBLE
"rd17" FLOAT DOUBLE
"rdvd17" FLOAT DOUBLE
"loverld17" FLOAT DOUBLE
"cgso17" FLOAT DOUBLE
"cgdo17" FLOAT DOUBLE
"cj17" FLOAT DOUBLE
"cjsw17" FLOAT DOUBLE
"mueph118" FLOAT DOUBLE
"muephl18" FLOAT DOUBLE
"vfbc18" FLOAT DOUBLE
"tox18" FLOAT DOUBLE
"nsubc18" FLOAT DOUBLE
"nsubp18" FLOAT DOUBLE
"rd18" FLOAT DOUBLE
"rdvd18" FLOAT DOUBLE
"loverld18" FLOAT DOUBLE
"cgso18" FLOAT DOUBLE
"cgdo18" FLOAT DOUBLE
"cj18" FLOAT DOUBLE
"cjsw18" FLOAT DOUBLE
"cj19" FLOAT DOUBLE
"cjsw19" FLOAT DOUBLE
"nsub19" FLOAT DOUBLE
"npeak19" FLOAT DOUBLE
"k119" FLOAT DOUBLE
"cj20" FLOAT DOUBLE
"cjsw20" FLOAT DOUBLE
"nsub20" FLOAT DOUBLE
"npeak20" FLOAT DOUBLE
"k120" FLOAT DOUBLE
"cj21" FLOAT DOUBLE
"cjsw21" FLOAT DOUBLE
"nsub21" FLOAT DOUBLE
"npeak21" FLOAT DOUBLE
"k121" FLOAT DOUBLE
"cj22" FLOAT DOUBLE
"cjsw22" FLOAT DOUBLE
"nsub22" FLOAT DOUBLE
"npeak22" FLOAT DOUBLE
"k122" FLOAT DOUBLE
"cj23" FLOAT DOUBLE
"cjsw23" FLOAT DOUBLE
"nsub23" FLOAT DOUBLE
"npeak23" FLOAT DOUBLE
"k123" FLOAT DOUBLE
"cj24" FLOAT DOUBLE
"cjsw24" FLOAT DOUBLE
"nsub24" FLOAT DOUBLE
"npeak24" FLOAT DOUBLE
"k124" FLOAT DOUBLE
"cj25" FLOAT DOUBLE
"cjsw25" FLOAT DOUBLE
"nsub25" FLOAT DOUBLE
"npeak25" FLOAT DOUBLE
"k125" FLOAT DOUBLE
"cj26" FLOAT DOUBLE
"cjsw26" FLOAT DOUBLE
"nsub26" FLOAT DOUBLE
"npeak26" FLOAT DOUBLE
"k126" FLOAT DOUBLE
"cj27" FLOAT DOUBLE
"cjsw27" FLOAT DOUBLE
"nsub27" FLOAT DOUBLE
"npeak27" FLOAT DOUBLE
"k127" FLOAT DOUBLE
"cj28" FLOAT DOUBLE
"cjsw28" FLOAT DOUBLE
"nsub28" FLOAT DOUBLE
"npeak28" FLOAT DOUBLE
"k128" FLOAT DOUBLE
"cj29" FLOAT DOUBLE
"cjsw29" FLOAT DOUBLE
"nsub29" FLOAT DOUBLE
"npeak29" FLOAT DOUBLE
"k129" FLOAT DOUBLE
"cj30" FLOAT DOUBLE
"cjsw30" FLOAT DOUBLE
"nsub30" FLOAT DOUBLE
"npeak30" FLOAT DOUBLE
"k130" FLOAT DOUBLE
"nsub31" FLOAT DOUBLE
"npeak31" FLOAT DOUBLE
"nsub32" FLOAT DOUBLE
"npeak32" FLOAT DOUBLE
"mueph133" FLOAT DOUBLE
"muephl33" FLOAT DOUBLE
"nsubc33" FLOAT DOUBLE
"nsubp33" FLOAT DOUBLE
"xw33" FLOAT DOUBLE
"lover33" FLOAT DOUBLE
"cgso33" FLOAT DOUBLE
"cgdo33" FLOAT DOUBLE
"cj33" FLOAT DOUBLE
"cjsw33" FLOAT DOUBLE
"rsh33" FLOAT DOUBLE
"clm633" FLOAT DOUBLE
"nfalp33" FLOAT DOUBLE
"nftrp33" FLOAT DOUBLE
"mueph134" FLOAT DOUBLE
"muephl34" FLOAT DOUBLE
"vfbc34" FLOAT DOUBLE
"nsubc34" FLOAT DOUBLE
"xw34" FLOAT DOUBLE
"lover34" FLOAT DOUBLE
"cgso34" FLOAT DOUBLE
"cgdo34" FLOAT DOUBLE
"cj34" FLOAT DOUBLE
"cjsw34" FLOAT DOUBLE
"rsh34" FLOAT DOUBLE
"clm634" FLOAT DOUBLE
"nfalp34" FLOAT DOUBLE
"nftrp34" FLOAT DOUBLE
"mueph135" FLOAT DOUBLE
"muephl35" FLOAT DOUBLE
"vfbc35" FLOAT DOUBLE
"nsubc35" FLOAT DOUBLE
"nsubp35" FLOAT DOUBLE
"xw35" FLOAT DOUBLE
"lover35" FLOAT DOUBLE
"cgso35" FLOAT DOUBLE
"cgdo35" FLOAT DOUBLE
"cj35" FLOAT DOUBLE
"cjsw35" FLOAT DOUBLE
"rsh35" FLOAT DOUBLE
"clm635" FLOAT DOUBLE
"nfalp35" FLOAT DOUBLE
"nftrp35" FLOAT DOUBLE
"mueph136" FLOAT DOUBLE
"muephl36" FLOAT DOUBLE
"vfbc36" FLOAT DOUBLE
"nsubc36" FLOAT DOUBLE
"nsubp36" FLOAT DOUBLE
"xw36" FLOAT DOUBLE
"lover36" FLOAT DOUBLE
"cgso36" FLOAT DOUBLE
"cgdo36" FLOAT DOUBLE
"cj36" FLOAT DOUBLE
"cjsw36" FLOAT DOUBLE
"rsh36" FLOAT DOUBLE
"clm636" FLOAT DOUBLE
"nfalp36" FLOAT DOUBLE
"nftrp36" FLOAT DOUBLE
"mueph137" FLOAT DOUBLE
"muephl37" FLOAT DOUBLE
"nsubc37" FLOAT DOUBLE
"xw37" FLOAT DOUBLE
"lover37" FLOAT DOUBLE
"cgso37" FLOAT DOUBLE
"cgdo37" FLOAT DOUBLE
"cj37" FLOAT DOUBLE
"cjsw37" FLOAT DOUBLE
"rsh37" FLOAT DOUBLE
"clm637" FLOAT DOUBLE
"nfalp37" FLOAT DOUBLE
"nftrp37" FLOAT DOUBLE
"mueph138" FLOAT DOUBLE
"muephl38" FLOAT DOUBLE
"nsubc38" FLOAT DOUBLE
"xw38" FLOAT DOUBLE
"lover38" FLOAT DOUBLE
"cgso38" FLOAT DOUBLE
"cgdo38" FLOAT DOUBLE
"cj38" FLOAT DOUBLE
"cjsw38" FLOAT DOUBLE
"rsh38" FLOAT DOUBLE
"clm638" FLOAT DOUBLE
"nfalp38" FLOAT DOUBLE
"nftrp38" FLOAT DOUBLE
"cj39" FLOAT DOUBLE
"cjsw39" FLOAT DOUBLE
"nsub39" FLOAT DOUBLE
"ld39" FLOAT DOUBLE
"wd39" FLOAT DOUBLE
"mueph140" FLOAT DOUBLE
"muephl40" FLOAT DOUBLE
"vfbc40" FLOAT DOUBLE
"nsubc40" FLOAT DOUBLE
"xw40" FLOAT DOUBLE
"lover40" FLOAT DOUBLE
"cgso40" FLOAT DOUBLE
"cgdo40" FLOAT DOUBLE
"cj40" FLOAT DOUBLE
"cjsw40" FLOAT DOUBLE
"rsh40" FLOAT DOUBLE
"clm640" FLOAT DOUBLE
"nfalp40" FLOAT DOUBLE
"nftrp40" FLOAT DOUBLE
"mueph141" FLOAT DOUBLE
"muephl41" FLOAT DOUBLE
"nsubc41" FLOAT DOUBLE
"xw41" FLOAT DOUBLE
"lover41" FLOAT DOUBLE
"cgso41" FLOAT DOUBLE
"cgdo41" FLOAT DOUBLE
"cj41" FLOAT DOUBLE
"cjsw41" FLOAT DOUBLE
"rsh41" FLOAT DOUBLE
"clm641" FLOAT DOUBLE
"nfalp41" FLOAT DOUBLE
"nftrp41" FLOAT DOUBLE
"cj42" FLOAT DOUBLE
"cjsw42" FLOAT DOUBLE
"nsub42" FLOAT DOUBLE
"ld42" FLOAT DOUBLE
"wd42" FLOAT DOUBLE
"cj43" FLOAT DOUBLE
"cjsw43" FLOAT DOUBLE
"nsub43" FLOAT DOUBLE
"npeak43" FLOAT DOUBLE
"rhv43" FLOAT DOUBLE
"cj44" FLOAT DOUBLE
"cjsw44" FLOAT DOUBLE
"nsub44" FLOAT DOUBLE
"npeak44" FLOAT DOUBLE
"rhv44" FLOAT DOUBLE
"cj45" FLOAT DOUBLE
"cjsw45" FLOAT DOUBLE
"nsub45" FLOAT DOUBLE
"npeak45" FLOAT DOUBLE
"rhv45" FLOAT DOUBLE
"cj46" FLOAT DOUBLE
"cjsw46" FLOAT DOUBLE
"nsub46" FLOAT DOUBLE
"npeak46" FLOAT DOUBLE
"rhv46" FLOAT DOUBLE
"beta147" FLOAT DOUBLE
"beta247" FLOAT DOUBLE
"rj47" FLOAT DOUBLE
"cj47" FLOAT DOUBLE
"cjsw47" FLOAT DOUBLE
"cgdx147" FLOAT DOUBLE
"nsub47" FLOAT DOUBLE
"npeak47" FLOAT DOUBLE
"rhv47" FLOAT DOUBLE
"beta148" FLOAT DOUBLE
"beta248" FLOAT DOUBLE
"rj48" FLOAT DOUBLE
"cj48" FLOAT DOUBLE
"cjsw48" FLOAT DOUBLE
"cgdx148" FLOAT DOUBLE
"nsub48" FLOAT DOUBLE
"npeak48" FLOAT DOUBLE
"rhv48" FLOAT DOUBLE
"mueph149" FLOAT DOUBLE
"muephl49" FLOAT DOUBLE
"vfbc49" FLOAT DOUBLE
"tox49" FLOAT DOUBLE
"nsubc49" FLOAT DOUBLE
"nsubp49" FLOAT DOUBLE
"rd49" FLOAT DOUBLE
"rdvd49" FLOAT DOUBLE
"loverld49" FLOAT DOUBLE
"cgso49" FLOAT DOUBLE
"cgdo49" FLOAT DOUBLE
"cj49" FLOAT DOUBLE
"cjsw49" FLOAT DOUBLE
"mueph150" FLOAT DOUBLE
"muephl50" FLOAT DOUBLE
"vfbc50" FLOAT DOUBLE
"tox50" FLOAT DOUBLE
"nsubc50" FLOAT DOUBLE
"nsubp50" FLOAT DOUBLE
"rd50" FLOAT DOUBLE
"rdvd50" FLOAT DOUBLE
"loverld50" FLOAT DOUBLE
"cgso50" FLOAT DOUBLE
"cgdo50" FLOAT DOUBLE
"cj50" FLOAT DOUBLE
"cjsw50" FLOAT DOUBLE
"cj51" FLOAT DOUBLE
"cjsw51" FLOAT DOUBLE
"nsub51" FLOAT DOUBLE
"npeak51" FLOAT DOUBLE
"k151" FLOAT DOUBLE
"cj52" FLOAT DOUBLE
"cjsw52" FLOAT DOUBLE
"nsub52" FLOAT DOUBLE
"npeak52" FLOAT DOUBLE
"k152" FLOAT DOUBLE
"cj53" FLOAT DOUBLE
"cjsw53" FLOAT DOUBLE
"nsub53" FLOAT DOUBLE
"npeak53" FLOAT DOUBLE
"k153" FLOAT DOUBLE
"cj54" FLOAT DOUBLE
"cjsw54" FLOAT DOUBLE
"nsub54" FLOAT DOUBLE
"npeak54" FLOAT DOUBLE
"k154" FLOAT DOUBLE
"cj55" FLOAT DOUBLE
"cjsw55" FLOAT DOUBLE
"nsub55" FLOAT DOUBLE
"npeak55" FLOAT DOUBLE
"k155" FLOAT DOUBLE
"cj56" FLOAT DOUBLE
"cjsw56" FLOAT DOUBLE
"nsub56" FLOAT DOUBLE
"npeak56" FLOAT DOUBLE
"k156" FLOAT DOUBLE
"cj57" FLOAT DOUBLE
"cjsw57" FLOAT DOUBLE
"nsub57" FLOAT DOUBLE
"npeak57" FLOAT DOUBLE
"k157" FLOAT DOUBLE
"cj58" FLOAT DOUBLE
"cjsw58" FLOAT DOUBLE
"nsub58" FLOAT DOUBLE
"npeak58" FLOAT DOUBLE
"k158" FLOAT DOUBLE
"cj59" FLOAT DOUBLE
"cjsw59" FLOAT DOUBLE
"nsub59" FLOAT DOUBLE
"npeak59" FLOAT DOUBLE
"k159" FLOAT DOUBLE
"cj60" FLOAT DOUBLE
"cjsw60" FLOAT DOUBLE
"nsub60" FLOAT DOUBLE
"npeak60" FLOAT DOUBLE
"k160" FLOAT DOUBLE
"cj61" FLOAT DOUBLE
"cjsw61" FLOAT DOUBLE
"nsub61" FLOAT DOUBLE
"npeak61" FLOAT DOUBLE
"k161" FLOAT DOUBLE
"cj62" FLOAT DOUBLE
"cjsw62" FLOAT DOUBLE
"nsub62" FLOAT DOUBLE
"npeak62" FLOAT DOUBLE
"k162" FLOAT DOUBLE
"nsub63" FLOAT DOUBLE
"npeak63" FLOAT DOUBLE
"nsub64" FLOAT DOUBLE
"npeak64" FLOAT DOUBLE
"rc65" FLOAT DOUBLE
"re65" FLOAT DOUBLE
"cje65" FLOAT DOUBLE
"cjc65" FLOAT DOUBLE
"mis_lat2" FLOAT DOUBLE
"mise_lat2" FLOAT DOUBLE
"misv_lat2" FLOAT DOUBLE
"rc66" FLOAT DOUBLE
"re66" FLOAT DOUBLE
"cje66" FLOAT DOUBLE
"tf66" FLOAT DOUBLE
"mis_vert10" FLOAT DOUBLE
"mbf_vert10" FLOAT DOUBLE
"mise_vert10" FLOAT DOUBLE
"cgsa67" FLOAT DOUBLE
"cgsp67" FLOAT DOUBLE
"cgda67" FLOAT DOUBLE
"cgdp67" FLOAT DOUBLE
"mr_rdiffn3" FLOAT DOUBLE
"cgsa68" FLOAT DOUBLE
"cgsp68" FLOAT DOUBLE
"cgda68" FLOAT DOUBLE
"cgdp68" FLOAT DOUBLE
"mr_rdiffp3" FLOAT DOUBLE
"cgsa69" FLOAT DOUBLE
"cgsp69" FLOAT DOUBLE
"cgda69" FLOAT DOUBLE
"cgdp69" FLOAT DOUBLE
"mr_rdiffn" FLOAT DOUBLE
"cgsa70" FLOAT DOUBLE
"cgsp70" FLOAT DOUBLE
"cgda70" FLOAT DOUBLE
"cgdp70" FLOAT DOUBLE
"mr_rdiffp" FLOAT DOUBLE
"mr_rpoly1" FLOAT DOUBLE
"cgsa72" FLOAT DOUBLE
"cgsp72" FLOAT DOUBLE
"cgda72" FLOAT DOUBLE
"cgdp72" FLOAT DOUBLE
"wd72" FLOAT DOUBLE
"mr_rnwell" FLOAT DOUBLE
"mr_rpoly2" FLOAT DOUBLE
"mr_rpoly2p" FLOAT DOUBLE
"mr_rpoly2ph" FLOAT DOUBLE
"mr_rpolyh" FLOAT DOUBLE
"rsh77" FLOAT DOUBLE
"wd77" FLOAT DOUBLE
"mr_rpolyz" FLOAT DOUBLE
"rsh78" FLOAT DOUBLE
"wd78" FLOAT DOUBLE
"cwa78" FLOAT DOUBLE
"cwp78" FLOAT DOUBLE
"cjod178" FLOAT DOUBLE
"cjod278" FLOAT DOUBLE
"rw1d78" FLOAT DOUBLE
"rw1078" FLOAT DOUBLE
"rw2d78" FLOAT DOUBLE
"rw2078" FLOAT DOUBLE
"mr_rpoly2rf" FLOAT DOUBLE
"rsh79" FLOAT DOUBLE
"wd79" FLOAT DOUBLE
"cwa79" FLOAT DOUBLE
"cwp79" FLOAT DOUBLE
"cjod179" FLOAT DOUBLE
"cjod279" FLOAT DOUBLE
"rw1d79" FLOAT DOUBLE
"rw1079" FLOAT DOUBLE
"rw2d79" FLOAT DOUBLE
"rw2079" FLOAT DOUBLE
"mr_rpolyhrf" FLOAT DOUBLE
"cgsa80" FLOAT DOUBLE
"cgsp80" FLOAT DOUBLE
"cgda80" FLOAT DOUBLE
"cgdp80" FLOAT DOUBLE
"wd80" FLOAT DOUBLE
"fdis83" FLOAT DOUBLE
"rdis83" FLOAT DOUBLE
"fdrs83" FLOAT DOUBLE
"rar83" FLOAT DOUBLE
"is83" FLOAT DOUBLE
"rc83" FLOAT DOUBLE
"bvbe83" FLOAT DOUBLE
"bvbc83" FLOAT DOUBLE
"cje83" FLOAT DOUBLE
"cjc83" FLOAT DOUBLE
"rz84" FLOAT DOUBLE
"isf84" FLOAT DOUBLE
"ca85" FLOAT DOUBLE
"cp85" FLOAT DOUBLE
"mc_cpoly" FLOAT DOUBLE
"ca86" FLOAT DOUBLE
"vc286" FLOAT DOUBLE
"mc_cmim" FLOAT DOUBLE
"ca87" FLOAT DOUBLE
"vc1a87" FLOAT DOUBLE
"vc2a87" FLOAT DOUBLE
"mc_cpmim" FLOAT DOUBLE
"cma88" FLOAT DOUBLE
"cmp88" FLOAT DOUBLE
"mc_cmimrf" FLOAT DOUBLE
"ca89" FLOAT DOUBLE
"cp89" FLOAT DOUBLE
"mr_cpolyrf" FLOAT DOUBLE
"ca90" FLOAT DOUBLE
"cp90" FLOAT DOUBLE
"nsub91" FLOAT DOUBLE
"npeak91" FLOAT DOUBLE
"mv_cvar" FLOAT DOUBLE
"mu_cvar" FLOAT DOUBLE
"cpad92" FLOAT DOUBLE
"cw1092" FLOAT DOUBLE
"cw2092" FLOAT DOUBLE
"cjod192" FLOAT DOUBLE
"cjod292" FLOAT DOUBLE
"cpad93" FLOAT DOUBLE
"cjw93" FLOAT DOUBLE
"cjod193" FLOAT DOUBLE
"cjod293" FLOAT DOUBLE
"bvr154" FLOAT DOUBLE
"isf154" FLOAT DOUBLE
"cjor154" FLOAT DOUBLE
"vbd1155" FLOAT DOUBLE
"rsd1155" FLOAT DOUBLE
"cjcpnp1155" FLOAT DOUBLE
"cjepnp2155" FLOAT DOUBLE
"ispnp1155" FLOAT DOUBLE
"ispnp2155" FLOAT DOUBLE
"nzd2155" FLOAT DOUBLE
"bvr156" FLOAT DOUBLE
"isf156" FLOAT DOUBLE
"cjor156" FLOAT DOUBLE
"vbd1157" FLOAT DOUBLE
"rsd1157" FLOAT DOUBLE
"cjcpnp1157" FLOAT DOUBLE
"cjepnp2157" FLOAT DOUBLE
"ispnp1157" FLOAT DOUBLE
"ispnp2157" FLOAT DOUBLE
"nzd2157" FLOAT DOUBLE
"bvr158" FLOAT DOUBLE
"isf158" FLOAT DOUBLE
"cjor158" FLOAT DOUBLE
"bvr159" FLOAT DOUBLE
"isf159" FLOAT DOUBLE
"cjor159" FLOAT DOUBLE
"bvr160" FLOAT DOUBLE
"isf160" FLOAT DOUBLE
"cjor160" FLOAT DOUBLE
"deltgox" FLOAT DOUBLE
"delvton" FLOAT DOUBLE
"delvtop" FLOAT DOUBLE
"deluon" FLOAT DOUBLE
"deluop" FLOAT DOUBLE
"dell" FLOAT DOUBLE
"delw" FLOAT DOUBLE
"deltgoxt" FLOAT DOUBLE
"delvtont" FLOAT DOUBLE
"delvtopt" FLOAT DOUBLE
"deluont" FLOAT DOUBLE
"deluopt" FLOAT DOUBLE
"dellt" FLOAT DOUBLE
"delwt" FLOAT DOUBLE
"deltgoxm" FLOAT DOUBLE
"delvtonm" FLOAT DOUBLE
"delvtonmh" FLOAT DOUBLE
"delvtopm" FLOAT DOUBLE
"deluonm" FLOAT DOUBLE
"deluonmh" FLOAT DOUBLE
"deluopm" FLOAT DOUBLE
"dellm" FLOAT DOUBLE
"delwm" FLOAT DOUBLE
"deltgoxtlv" FLOAT DOUBLE
"delvtontlv" FLOAT DOUBLE
"delvtoptlv" FLOAT DOUBLE
"deluontlv" FLOAT DOUBLE
"deluoptlv" FLOAT DOUBLE
"delltlv" FLOAT DOUBLE
"delwtlv" FLOAT DOUBLE
"deltgoxmlv" FLOAT DOUBLE
"delvtonmlv" FLOAT DOUBLE
"delvtopmlv" FLOAT DOUBLE
"deluonmlv" FLOAT DOUBLE
"deluopmlv" FLOAT DOUBLE
"dellmlv" FLOAT DOUBLE
"delwmlv" FLOAT DOUBLE
"deltgoxh" FLOAT DOUBLE
"delvtonh" FLOAT DOUBLE
"delvtoph" FLOAT DOUBLE
"deluonh" FLOAT DOUBLE
"deluoneh" FLOAT DOUBLE
"deluoph" FLOAT DOUBLE
"dellh" FLOAT DOUBLE
"delwh" FLOAT DOUBLE
"delrj" FLOAT DOUBLE
"delbeta" FLOAT DOUBLE
"drdiffn" FLOAT DOUBLE
"drdiffp" FLOAT DOUBLE
"drdiffnr" FLOAT DOUBLE
"drdiffps" FLOAT DOUBLE
"drpjfet" FLOAT DOUBLE
"ratiorw" FLOAT DOUBLE
"drpoly1" FLOAT DOUBLE
"dwdpoly1" FLOAT DOUBLE
"dwdpoly" FLOAT DOUBLE
"drpolyp" FLOAT DOUBLE
"dwdpoly2" FLOAT DOUBLE
"drpoly2" FLOAT DOUBLE
"drpoly2p" FLOAT DOUBLE
"drpoly2ph" FLOAT DOUBLE
"drpolyh" FLOAT DOUBLE
"dwdpolyh" FLOAT DOUBLE
"cgsdon" FLOAT DOUBLE
"cgbon" FLOAT DOUBLE
"cgsdop" FLOAT DOUBLE
"cgbop" FLOAT DOUBLE
"cgsont" FLOAT DOUBLE
"cgdont" FLOAT DOUBLE
"cgbont" FLOAT DOUBLE
"cgsonit" FLOAT DOUBLE
"cgdonit" FLOAT DOUBLE
"cgbonit" FLOAT DOUBLE
"cgsopt" FLOAT DOUBLE
"cgdopt" FLOAT DOUBLE
"cgbopt" FLOAT DOUBLE
"cgsdonm" FLOAT DOUBLE
"cgbonm" FLOAT DOUBLE
"cgsdopm" FLOAT DOUBLE
"cgbopm" FLOAT DOUBLE
"cgsonm50" FLOAT DOUBLE
"cgdonm50" FLOAT DOUBLE
"cgbonm50" FLOAT DOUBLE
"cgsonim50" FLOAT DOUBLE
"cgdonim50" FLOAT DOUBLE
"cgbonim50" FLOAT DOUBLE
"cgsopm50" FLOAT DOUBLE
"cgdopm50" FLOAT DOUBLE
"cgbopm50" FLOAT DOUBLE
"cgsdonh" FLOAT DOUBLE
"cgbonh" FLOAT DOUBLE
"cgsdoph" FLOAT DOUBLE
"cgboph" FLOAT DOUBLE
"cgsdonlv" FLOAT DOUBLE
"cgbonlv" FLOAT DOUBLE
"cgsdonmlv" FLOAT DOUBLE
"cgbonmlv" FLOAT DOUBLE
"cgsdopmlv" FLOAT DOUBLE
"cgbopmlv" FLOAT DOUBLE
"cgsdoplv" FLOAT DOUBLE
"cgboplv" FLOAT DOUBLE
"gummelbi" FLOAT DOUBLE
"recombbi" FLOAT DOUBLE
"ratiocje" FLOAT DOUBLE
"ratiocjc" FLOAT DOUBLE
"ratiocjs" FLOAT DOUBLE
"ratiorcb" FLOAT DOUBLE
"ratioreb" FLOAT DOUBLE
"extrapar" FLOAT DOUBLE
"ratiobv" FLOAT DOUBLE
"rbetabi" FLOAT DOUBLE
"recombpa" FLOAT DOUBLE
"norzener" FLOAT DOUBLE
"gummelpa" FLOAT DOUBLE
"mv_modn" FLOAT DOUBLE
"mu_modn" FLOAT DOUBLE
"mv_modnm" FLOAT DOUBLE
"mu_modnm" FLOAT DOUBLE
"mv_modnl" FLOAT DOUBLE
"mu_modnl" FLOAT DOUBLE
"mv_modnml" FLOAT DOUBLE
"mu_modnml" FLOAT DOUBLE
"mv_modpm" FLOAT DOUBLE
"mu_modpm" FLOAT DOUBLE
"mv_modpml" FLOAT DOUBLE
"mu_modpml" FLOAT DOUBLE
"mv_modp" FLOAT DOUBLE
"mu_modp" FLOAT DOUBLE
"mv_modpl" FLOAT DOUBLE
"mu_modpl" FLOAT DOUBLE
"mv_modnmh" FLOAT DOUBLE
"mu_modnmh" FLOAT DOUBLE
"mv_modnmhl" FLOAT DOUBLE
"mu_modnmhl" FLOAT DOUBLE
"mv_modnh" FLOAT DOUBLE
"mu_modnh" FLOAT DOUBLE
"mv_modnhl" FLOAT DOUBLE
"mu_modnhl" FLOAT DOUBLE
"mv_modn30m" FLOAT DOUBLE
"mu_modn30m" FLOAT DOUBLE
"mv_modn18t" FLOAT DOUBLE
"mu_modn18t" FLOAT DOUBLE
"mv_modpd30m" FLOAT DOUBLE
"mu_modpd30m" FLOAT DOUBLE
"mv_modp30m" FLOAT DOUBLE
"mu_modp30m" FLOAT DOUBLE
"mv_nmosw_2n" FLOAT DOUBLE
"mu_nmosw_2n" FLOAT DOUBLE
"mv_nmosw_3n" FLOAT DOUBLE
"mu_nmosw_3n" FLOAT DOUBLE
"mv_nmosw_4n" FLOAT DOUBLE
"mu_nmosw_4n" FLOAT DOUBLE
"mv_nmosmw_2n" FLOAT DOUBLE
"mu_nmosmw_2n" FLOAT DOUBLE
"mv_nmosmw_3n" FLOAT DOUBLE
"mu_nmosmw_3n" FLOAT DOUBLE
"mv_nmosmw_4n" FLOAT DOUBLE
"mu_nmosmw_4n" FLOAT DOUBLE
"mv_pmosw_2n" FLOAT DOUBLE
"mu_pmosw_2n" FLOAT DOUBLE
"mv_pmosw_3n" FLOAT DOUBLE
"mu_pmosw_3n" FLOAT DOUBLE
"mv_pmosw_4n" FLOAT DOUBLE
"mu_pmosw_4n" FLOAT DOUBLE
"mv_pmosmw_2n" FLOAT DOUBLE
"mu_pmosmw_2n" FLOAT DOUBLE
"mv_pmosmw_3n" FLOAT DOUBLE
"mu_pmosmw_3n" FLOAT DOUBLE
"mv_pmosmw_4n" FLOAT DOUBLE
"mu_pmosmw_4n" FLOAT DOUBLE
"mv_modnrf53" FLOAT DOUBLE
"mu_modnrf53" FLOAT DOUBLE
"mv_modprf53" FLOAT DOUBLE
"mu_modprf53" FLOAT DOUBLE
"TOPMET" FLOAT DOUBLE
"PHD_COATING" FLOAT DOUBLE
"PRIMLIB_WIP" FLOAT DOUBLE
"cmim" FLOAT DOUBLE
"cpmim" FLOAT DOUBLE
"cpmimc" FLOAT DOUBLE
"cpoly" FLOAT DOUBLE
"cpolyc" FLOAT DOUBLE
"cpolyrf" FLOAT DOUBLE
"cvar" FLOAT DOUBLE
"cvarm" FLOAT DOUBLE
"cvart" FLOAT DOUBLE
"moddpm" FLOAT DOUBLE
"esdfdn5" FLOAT DOUBLE
"esdfdp5" FLOAT DOUBLE
"esdgcn5" FLOAT DOUBLE
"esdgcp5" FLOAT DOUBLE
"esdmodn" FLOAT DOUBLE
"esdmodnm" FLOAT DOUBLE
"esdpd18" FLOAT DOUBLE
"esdpd26" FLOAT DOUBLE
"esdpd30" FLOAT DOUBLE
"esdmodp" FLOAT DOUBLE
"esmoddpm" FLOAT DOUBLE
"lat2" FLOAT DOUBLE
"modn18t" FLOAT DOUBLE
"modn30m" FLOAT DOUBLE
"modn" FLOAT DOUBLE
"modnh" FLOAT DOUBLE
"modnhl" FLOAT DOUBLE
"modnl" FLOAT DOUBLE
"modnm" FLOAT DOUBLE
"modnmh" FLOAT DOUBLE
"modnmhl" FLOAT DOUBLE
"modnml" FLOAT DOUBLE
"modnmw" FLOAT DOUBLE
"modnrf" FLOAT DOUBLE
"modnw" FLOAT DOUBLE
"nwd" FLOAT DOUBLE
"padvdd" FLOAT DOUBLE
"padvss" FLOAT DOUBLE
"pfuse" FLOAT DOUBLE
"phdnwa850" FLOAT DOUBLE
"phdnwb850" FLOAT DOUBLE
"modp30m" FLOAT DOUBLE
"modp" FLOAT DOUBLE
"modpd30m" FLOAT DOUBLE
"modpl" FLOAT DOUBLE
"modpm" FLOAT DOUBLE
"modpml" FLOAT DOUBLE
"modpmw" FLOAT DOUBLE
"modprf" FLOAT DOUBLE
"modpw" FLOAT DOUBLE
"rdiffn3" FLOAT DOUBLE
"rdiffp3" FLOAT DOUBLE
"rnwell" FLOAT DOUBLE
"rpoly1" FLOAT DOUBLE
"rpoly1c" FLOAT DOUBLE
"rpoly2" FLOAT DOUBLE
"rpoly2c" FLOAT DOUBLE
"rpoly2p" FLOAT DOUBLE
"rpoly2pc" FLOAT DOUBLE
"rpoly2ph" FLOAT DOUBLE
"rpoly2phc" FLOAT DOUBLE
"rpoly2rf" FLOAT DOUBLE
"rpolyh" FLOAT DOUBLE
"rpolyhc" FLOAT DOUBLE
"rpolyhrf" FLOAT DOUBLE
"rpolyz" FLOAT DOUBLE
"rpolyzc" FLOAT DOUBLE
"rpolyzrf" FLOAT DOUBLE
"sbd5" FLOAT DOUBLE
"subdiode" FLOAT DOUBLE
"vert10" FLOAT DOUBLE
"welldiode" FLOAT DOUBLE
"zd2sm24" FLOAT DOUBLE
"SP014S300C" FLOAT DOUBLE
"SP018S300C" FLOAT DOUBLE
"SP020S180C" FLOAT DOUBLE
"SP023S200C" FLOAT DOUBLE
"SP025C200C" FLOAT DOUBLE
"SP026S200C" FLOAT DOUBLE
"SP028C200C" FLOAT DOUBLE
"SP028S300C" FLOAT DOUBLE
"SP030C200C" FLOAT DOUBLE
"SP037S180C" FLOAT DOUBLE
"SP038S300C" FLOAT DOUBLE
"SP040C200C" FLOAT DOUBLE
"SP040C300C" FLOAT DOUBLE
"SP045C200C" FLOAT DOUBLE
"SP047S180C" FLOAT DOUBLE
"SP050S155C" FLOAT DOUBLE
"SP051C300C" FLOAT DOUBLE
"SP068C300C" FLOAT DOUBLE
"SP090C200C" FLOAT DOUBLE
"SP090S155C" FLOAT DOUBLE
"SP112C300C" FLOAT DOUBLE
"SP140C200C" FLOAT DOUBLE
"SP200C200C" FLOAT DOUBLE
"SY014C165C" FLOAT DOUBLE
"SY015C200C" FLOAT DOUBLE
"SY016C180C" FLOAT DOUBLE
"SY017C165C" FLOAT DOUBLE
"SY019C180C" FLOAT DOUBLE
"SY028C160C" FLOAT DOUBLE
"SP014S300D" FLOAT DOUBLE
"SP020S180D" FLOAT DOUBLE
"SP026S200D" FLOAT DOUBLE
"SP037S180D" FLOAT DOUBLE
"SP047S180D" FLOAT DOUBLE
"SP050S155D" FLOAT DOUBLE
"SP090S155D" FLOAT DOUBLE
"SP011S200T" FLOAT DOUBLE
"SP015S250T" FLOAT DOUBLE
"SP020S250T" FLOAT DOUBLE
"SP021S200T" FLOAT DOUBLE
"SP024S250T" FLOAT DOUBLE
"SP031S250T" FLOAT DOUBLE
"SP033S150T" FLOAT DOUBLE
"SP037S250T" FLOAT DOUBLE
"SP047S250T" FLOAT DOUBLE
"SP049S300T" FLOAT DOUBLE
"SP060S300T" FLOAT DOUBLE
"SP073S250T" FLOAT DOUBLE
"SP100S250T" FLOAT DOUBLE
"SP133S300T" FLOAT DOUBLE
"DI15PT" FLOAT DOUBLE
"DI20PT" FLOAT DOUBLE
"DI25PT" FLOAT DOUBLE
"DI30PT" FLOAT DOUBLE
"DI35PT" FLOAT DOUBLE
"DI40PT" FLOAT DOUBLE
"DI45PT" FLOAT DOUBLE
"DI50PT" FLOAT DOUBLE
"DI55PT" FLOAT DOUBLE
"DI60PT" FLOAT DOUBLE
) PROP(
"key" "parameters"
)
VALUE
"top-level" "top-level" (
-4.000000000000000e+01
2.700000000000000e+01
-4.000000000000000e+01
0.000000000000000e+00
-4.000000000000000e+01
1.000000000000000e-09
1.000000000000000e-09
1.000000000000000e+03
3.300000000000000e+00
3.300000000000000e+00
3.300000000000000e+00
3.300000000000000e+00
1.000000000000000e-03
2.970000000000000e+00
0.000000000000000e+00
9.128551653102041e-04
2.245259841065854e-10
2.994663542516529e+17
2.638792001942926e+17
1.915287838760445e-01
1.257081736961311e+01
8.985757980272173e-04
2.208478559646756e-10
2.732144741062075e+17
2.292186722537963e+17
-4.073638147437932e-01
1.423516995121806e+01
8.311240657903254e-04
2.298507468774915e-10
1.792916788607836e+17
2.542350097736380e+17
-5.908292996431078e-02
1.207471910080447e+01
8.789308506675995e-03
2.878240775782615e-10
1.508225772190839e+17
1.476136434502001e+17
1.649488853106000e-01
1.236156804544207e+01
1.225381198388990e-03
3.455172467375174e-10
1.084730450788513e+17
8.825359584182323e+16
1.705083833603262e+00
1.087369399609478e+01
1.507448757544160e-03
3.643434604723007e-10
7.069478514065966e+16
6.866237376187014e+16
1.450150645288977e+00
1.012337369996961e+01
8.547499217772857e-04
2.442070044483990e-10
2.673777662120759e+17
-4.508397887294529e-08
8.261048196288111e-08
1.386169621180743e-03
2.921202436033636e-10
4.766353138998150e+16
8.951749397006510e+16
9.202059867372028e-01
1.099725654115995e+01
1.427555111512542e-03
3.364471049141139e-10
1.376720960780978e+17
8.498705070917434e+16
1.676816272860400e-01
9.903774236966498e+00
1.322922910952009e-03
2.961128288824111e-10
7.757568681135773e+16
-6.954045917745230e-08
3.452228798055055e-08
9.482735015451909e-05
4.432592677627690e-10
2.061082830086350e+17
1.782560519583523e+17
1.243567600168288e+03
8.721070320142899e-04
1.981998521368951e-10
1.513001945939846e+17
1.601473378448747e+17
1.885551556118764e+03
9.233477452769876e-05
6.162412168504670e-10
2.353777625404298e+17
2.580585062254220e+17
1.438215777602047e+03
7.075584929594770e-04
2.665401972481050e-10
1.603449758283794e+17
1.938821333805099e+17
1.406474973387085e+03
4.989446275001858e+00
4.856322459022515e+00
1.022587324332446e+00
7.669506231229753e-04
3.107367054326460e-10
3.069363420065493e-10
2.211103064763360e+17
1.890684070769697e+17
8.720250937069766e-03
3.746216451891698e+00
2.459161899983883e+00
1.067931102155941e+00
8.898306515347213e-04
2.484091079095379e-10
5.184346480220556e-10
2.620580089011229e+17
1.996064096819609e+17
1.143401988745667e-02
7.553597088442743e+03
8.852343321620859e-01
-4.303362825991446e-01
1.455855745822191e-08
6.188325524405110e+16
1.077737591693737e+17
6.129426970980596e-03
5.270745206082891e-02
4.497329561784864e-07
2.286531003367156e-10
4.154311960696243e-10
1.251110333120823e-03
3.241124975923449e-10
8.687667304387969e+03
-1.223667041934281e-01
-4.374105141314911e-01
1.576832081563771e-08
4.879543214573618e+16
1.162456016014796e+17
7.885212525864412e-03
6.925098430637178e-02
1.037094116397202e-07
1.993138786813244e-10
3.452650376534089e-10
1.486958700653911e-03
3.268396255504340e-10
9.900434902778360e-04
3.118871625629254e-10
2.325406463041901e+17
2.109211908054032e+17
6.067410712067148e-01
8.720452254591510e-04
1.939068303909153e-10
2.085323184380308e+17
2.240095868533289e+17
5.690160582000647e-01
1.019736081597162e-03
3.077756061684340e-10
2.004157808041200e+17
2.135318665102532e+17
5.919793133919596e-01
8.444987736681942e-04
2.924010528950021e-10
1.708120391145348e+17
1.459586233609223e+17
9.337647954598088e-01
7.286988338339143e-04
2.574019673047587e-10
1.745253253426403e+17
1.526770497142882e+17
9.716289645892312e-01
6.932145877378062e-04
2.245577895082534e-10
1.827943572137505e+17
1.483621194176350e+17
9.953308482247342e-01
1.513821284826845e-03
2.729631119291298e-10
1.099806662911177e+17
8.742072247757229e+16
2.829191497126718e-01
1.393240880724043e-03
2.710026378859765e-10
1.127353909054771e+17
9.977620656853928e+16
3.002364365204476e-01
1.626476783193648e-03
3.213757566525601e-10
9.236757410550490e+16
9.774591985636693e+16
3.104325844550415e-01
1.326552500296384e-03
2.796875483589247e-10
6.587795696929098e+16
8.915172428396454e+16
4.938503164270435e-01
1.497915253788233e-03
3.042528328835033e-10
6.715893102083355e+16
8.145117886407477e+16
5.634627405830273e-01
1.698629228305072e-03
2.993904595263302e-10
6.232857846636325e+16
8.685183199724742e+16
5.630345162124811e-01
2.598718407565728e+17
2.525850542534143e+17
3.070061865882948e+17
1.212111345119774e+17
2.137282698895223e+04
-8.822617550021689e-02
2.062441110110516e+17
9.008424397768360e+17
1.237134372620285e-07
9.692881755018606e-08
7.504099577113986e-11
7.522182122677565e-11
8.513031762287021e-04
2.386369511205703e-10
6.993063216097653e+01
2.575653403011709e+00
-2.190777867292030e-01
1.776618189407287e+01
2.619880781922117e+04
-4.010387353336159e-02
-1.155385655494127e+00
1.809683701395430e+17
1.027689163834602e-07
6.968479163274169e-08
6.739329950922169e-11
6.337381230469794e-11
8.574838128179313e-04
2.295830299519003e-10
7.694957441650331e+01
5.662445465658791e+00
1.099068866643566e+00
1.885468045548356e+01
2.826231344227539e+04
-5.730514289246499e-02
-9.818173638795270e-01
1.890007679677615e+17
9.765216278701649e+17
2.360914170429855e-07
5.379451803397387e-08
6.036254989329725e-11
6.078772271353751e-11
8.130651213929058e-04
2.630325988493860e-10
6.692977312952280e+01
4.827784879991786e+00
-1.842576942272978e+00
1.839878879735139e+01
2.870532030614419e+04
1.243814307521712e-01
-1.134483004013449e+00
1.371072846912220e+17
4.558086544022057e+17
7.224820749908691e-09
8.841185739636421e-08
7.159160759262740e-11
6.893587294351309e-11
8.277367342695595e-04
2.559366929717362e-10
7.071127355098724e+01
2.265320744851231e+00
2.287951824606252e+00
1.884944425144433e+01
1.191900859881192e+04
-2.045478184883902e-01
6.693173019180726e+16
-1.512258563444018e-08
3.029193727571517e-08
5.080924583261833e-11
4.832636429400184e-11
1.291735661509633e-03
3.476784773543477e-10
1.573605287214741e+02
1.295546123322100e+00
1.398905391119785e+00
1.518685865115044e+01
1.363202010421455e+04
-2.753736480829492e-01
7.088159250754584e+16
-1.436451338090002e-07
2.299956535232253e-08
4.446211639050394e-11
5.006998258482665e-11
1.322725019016862e-03
3.628656743597239e-10
1.570874648960307e+02
3.375573992205225e+00
4.971380660903560e-01
1.507324170594967e+01
8.826869484833442e-04
2.244927235133946e-10
3.180455566838383e+17
-4.743317802449066e-08
8.901134293324289e-08
1.184979952855594e+04
-1.506431212445814e-01
-4.793289121258072e-01
8.053773399266229e+16
-1.033681342035532e-08
2.391445093977824e-08
2.825072079164907e-11
3.315122905416414e-11
1.412882722213865e-03
3.468538851439953e-10
1.232033771090209e+02
4.171800379844010e+00
-6.906700032030780e-01
1.736451688316371e+01
1.337384256764269e+04
-1.593753976609185e-01
1.404497825260228e+17
-6.579276308678091e-08
8.433079470396042e-09
2.774656695604324e-11
3.318916265502572e-11
1.410106669911742e-03
3.110653929989785e-10
1.453016308462247e+02
1.922683306089975e+00
-2.714013920868092e-01
1.924561220272165e+01
1.389851859978400e-03
3.117321301163174e-10
5.303840017601848e+16
-6.297576557392226e-08
3.495054321083828e-08
9.070849541574718e-05
4.138640749035403e-10
2.122218715183437e+17
2.391474724817090e+17
1.550093223457225e+03
7.150130076503847e-04
2.971797629725188e-10
1.931559038374573e+17
1.487550126181916e+17
1.894442515696399e+03
8.163234557956458e-05
5.422496439842507e-10
2.334367211401462e+17
1.947823142530396e+17
1.562328006070107e+03
8.375493674541358e-04
2.282464692834765e-10
1.448978190805763e+17
1.518312516095117e+17
1.480751103600487e+03
5.058181622721255e+00
4.131410815260373e+00
1.083162612411426e+00
8.161302231531590e-04
2.686139978468418e-10
3.863089682669379e-10
1.960741539867595e+17
2.438716224987060e+17
7.385849602535832e-03
4.759169740091078e+00
2.305651160515845e+00
8.794761025547050e-01
7.953975363448263e-04
2.771771556581371e-10
4.500476993247866e-10
1.993586160784587e+17
1.818291813978925e+17
1.168459946349077e-02
8.317184858474229e+03
3.189920989146456e-01
-4.578277359004738e-01
1.418853109236806e-08
5.996844884093665e+16
1.067139034060668e+17
7.114618924428989e-03
2.789407270901371e-02
4.004924895986914e-07
2.238195462327450e-10
3.662881047568284e-10
1.307524706211686e-03
3.220045018736273e-10
8.770203256484867e+03
1.093864949588347e+00
-4.435723697775789e-01
1.580351477675140e-08
6.226467110979837e+16
1.113136383296549e+17
6.437281967059057e-03
8.431660823918506e-02
8.960731266066429e-08
2.112870854035020e-10
4.147621666475199e-10
1.291148959767819e-03
3.620193618722260e-10
6.543500528493896e-04
2.447609709925018e-10
2.131814579829574e+17
2.138746124446976e+17
5.963933804508883e-01
1.026602360671386e-03
2.043842548737303e-10
2.138177043419331e+17
2.346543743915067e+17
5.614927854775728e-01
8.342126891773660e-04
2.516082059009932e-10
2.340637093979865e+17
2.189883431843006e+17
5.322273625557016e-01
6.440111718855333e-04
2.642650459310972e-10
1.708481409437955e+17
1.341497387759293e+17
9.733611705364071e-01
7.407571396389976e-04
1.896878059487790e-10
1.787686686601490e+17
1.491919974626691e+17