HEADER
"PSFversion" "1.00"
"simulator" "spectre"
"version" "24.1.0.288.isr5"
"date" "10:58:12 AM, Mon Mar 23, 2026"
"design" "// Point Netlist Generated on: Mar 23 10:58:08 2026"
"analysis type" "info"
"analysis name" "designParamVals"
"analysis description" "Circuit Information"
"xVecSorted" "unknown"
"tolerance.relative" 1.000000000000000e-04
TYPE
"top-level" STRUCT(
"temp" FLOAT DOUBLE
"tnom" FLOAT DOUBLE
"temper" FLOAT DOUBLE
"time" FLOAT DOUBLE
"temperature" FLOAT DOUBLE
"VIN_FREQ" FLOAT DOUBLE
"VIN_AMP" FLOAT DOUBLE
"VIN_STEP" FLOAT DOUBLE
"S0" FLOAT DOUBLE
"S1" FLOAT DOUBLE
"S2" FLOAT DOUBLE
"VDD" FLOAT DOUBLE
"cj1" FLOAT DOUBLE
"cjsw1" FLOAT DOUBLE
"nsub1" FLOAT DOUBLE
"npeak1" FLOAT DOUBLE
"noia1" FLOAT DOUBLE
"noib1" FLOAT DOUBLE
"cj2" FLOAT DOUBLE
"cjsw2" FLOAT DOUBLE
"nsub2" FLOAT DOUBLE
"npeak2" FLOAT DOUBLE
"noia2" FLOAT DOUBLE
"noib2" FLOAT DOUBLE
"cj3" FLOAT DOUBLE
"cjsw3" FLOAT DOUBLE
"nsub3" FLOAT DOUBLE
"npeak3" FLOAT DOUBLE
"noia3" FLOAT DOUBLE
"noib3" FLOAT DOUBLE
"cj4" FLOAT DOUBLE
"cjsw4" FLOAT DOUBLE
"nsub4" FLOAT DOUBLE
"npeak4" FLOAT DOUBLE
"noia4" FLOAT DOUBLE
"noib4" FLOAT DOUBLE
"cj5" FLOAT DOUBLE
"cjsw5" FLOAT DOUBLE
"nsub5" FLOAT DOUBLE
"npeak5" FLOAT DOUBLE
"noia5" FLOAT DOUBLE
"noib5" FLOAT DOUBLE
"cj6" FLOAT DOUBLE
"cjsw6" FLOAT DOUBLE
"nsub6" FLOAT DOUBLE
"npeak6" FLOAT DOUBLE
"noia6" FLOAT DOUBLE
"noib6" FLOAT DOUBLE
"cj7" FLOAT DOUBLE
"cjsw7" FLOAT DOUBLE
"nsub7" FLOAT DOUBLE
"ld7" FLOAT DOUBLE
"wd7" FLOAT DOUBLE
"cj8" FLOAT DOUBLE
"cjsw8" FLOAT DOUBLE
"nsub8" FLOAT DOUBLE
"npeak8" FLOAT DOUBLE
"noia8" FLOAT DOUBLE
"noib8" FLOAT DOUBLE
"cj9" FLOAT DOUBLE
"cjsw9" FLOAT DOUBLE
"nsub9" FLOAT DOUBLE
"npeak9" FLOAT DOUBLE
"noia9" FLOAT DOUBLE
"noib9" FLOAT DOUBLE
"cj10" FLOAT DOUBLE
"cjsw10" FLOAT DOUBLE
"nsub10" FLOAT DOUBLE
"ld10" FLOAT DOUBLE
"wd10" FLOAT DOUBLE
"cj11" FLOAT DOUBLE
"cjsw11" FLOAT DOUBLE
"nsub11" FLOAT DOUBLE
"npeak11" FLOAT DOUBLE
"rhv11" FLOAT DOUBLE
"cj12" FLOAT DOUBLE
"cjsw12" FLOAT DOUBLE
"nsub12" FLOAT DOUBLE
"npeak12" FLOAT DOUBLE
"rhv12" FLOAT DOUBLE
"cj13" FLOAT DOUBLE
"cjsw13" FLOAT DOUBLE
"nsub13" FLOAT DOUBLE
"npeak13" FLOAT DOUBLE
"rhv13" FLOAT DOUBLE
"cj14" FLOAT DOUBLE
"cjsw14" FLOAT DOUBLE
"nsub14" FLOAT DOUBLE
"npeak14" FLOAT DOUBLE
"rhv14" FLOAT DOUBLE
"beta115" FLOAT DOUBLE
"beta215" FLOAT DOUBLE
"rj15" FLOAT DOUBLE
"cj15" FLOAT DOUBLE
"cjsw15" FLOAT DOUBLE
"cgdx115" FLOAT DOUBLE
"nsub15" FLOAT DOUBLE
"npeak15" FLOAT DOUBLE
"rhv15" FLOAT DOUBLE
"beta116" FLOAT DOUBLE
"beta216" FLOAT DOUBLE
"rj16" FLOAT DOUBLE
"cj16" FLOAT DOUBLE
"cjsw16" FLOAT DOUBLE
"cgdx116" FLOAT DOUBLE
"nsub16" FLOAT DOUBLE
"npeak16" FLOAT DOUBLE
"rhv16" FLOAT DOUBLE
"mueph117" FLOAT DOUBLE
"muephl17" FLOAT DOUBLE
"vfbc17" FLOAT DOUBLE
"tox17" FLOAT DOUBLE
"nsubc17" FLOAT DOUBLE
"nsubp17" FLOAT DOUBLE
"rd17" FLOAT DOUBLE
"rdvd17" FLOAT DOUBLE
"loverld17" FLOAT DOUBLE
"cgso17" FLOAT DOUBLE
"cgdo17" FLOAT DOUBLE
"cj17" FLOAT DOUBLE
"cjsw17" FLOAT DOUBLE
"mueph118" FLOAT DOUBLE
"muephl18" FLOAT DOUBLE
"vfbc18" FLOAT DOUBLE
"tox18" FLOAT DOUBLE
"nsubc18" FLOAT DOUBLE
"nsubp18" FLOAT DOUBLE
"rd18" FLOAT DOUBLE
"rdvd18" FLOAT DOUBLE
"loverld18" FLOAT DOUBLE
"cgso18" FLOAT DOUBLE
"cgdo18" FLOAT DOUBLE
"cj18" FLOAT DOUBLE
"cjsw18" FLOAT DOUBLE
"cj19" FLOAT DOUBLE
"cjsw19" FLOAT DOUBLE
"nsub19" FLOAT DOUBLE
"npeak19" FLOAT DOUBLE
"k119" FLOAT DOUBLE
"cj20" FLOAT DOUBLE
"cjsw20" FLOAT DOUBLE
"nsub20" FLOAT DOUBLE
"npeak20" FLOAT DOUBLE
"k120" FLOAT DOUBLE
"cj21" FLOAT DOUBLE
"cjsw21" FLOAT DOUBLE
"nsub21" FLOAT DOUBLE
"npeak21" FLOAT DOUBLE
"k121" FLOAT DOUBLE
"cj22" FLOAT DOUBLE
"cjsw22" FLOAT DOUBLE
"nsub22" FLOAT DOUBLE
"npeak22" FLOAT DOUBLE
"k122" FLOAT DOUBLE
"cj23" FLOAT DOUBLE
"cjsw23" FLOAT DOUBLE
"nsub23" FLOAT DOUBLE
"npeak23" FLOAT DOUBLE
"k123" FLOAT DOUBLE
"cj24" FLOAT DOUBLE
"cjsw24" FLOAT DOUBLE
"nsub24" FLOAT DOUBLE
"npeak24" FLOAT DOUBLE
"k124" FLOAT DOUBLE
"cj25" FLOAT DOUBLE
"cjsw25" FLOAT DOUBLE
"nsub25" FLOAT DOUBLE
"npeak25" FLOAT DOUBLE
"k125" FLOAT DOUBLE
"cj26" FLOAT DOUBLE
"cjsw26" FLOAT DOUBLE
"nsub26" FLOAT DOUBLE
"npeak26" FLOAT DOUBLE
"k126" FLOAT DOUBLE
"cj27" FLOAT DOUBLE
"cjsw27" FLOAT DOUBLE
"nsub27" FLOAT DOUBLE
"npeak27" FLOAT DOUBLE
"k127" FLOAT DOUBLE
"cj28" FLOAT DOUBLE
"cjsw28" FLOAT DOUBLE
"nsub28" FLOAT DOUBLE
"npeak28" FLOAT DOUBLE
"k128" FLOAT DOUBLE
"cj29" FLOAT DOUBLE
"cjsw29" FLOAT DOUBLE
"nsub29" FLOAT DOUBLE
"npeak29" FLOAT DOUBLE
"k129" FLOAT DOUBLE
"cj30" FLOAT DOUBLE
"cjsw30" FLOAT DOUBLE
"nsub30" FLOAT DOUBLE
"npeak30" FLOAT DOUBLE
"k130" FLOAT DOUBLE
"nsub31" FLOAT DOUBLE
"npeak31" FLOAT DOUBLE
"nsub32" FLOAT DOUBLE
"npeak32" FLOAT DOUBLE
"mueph133" FLOAT DOUBLE
"muephl33" FLOAT DOUBLE
"nsubc33" FLOAT DOUBLE
"nsubp33" FLOAT DOUBLE
"xw33" FLOAT DOUBLE
"lover33" FLOAT DOUBLE
"cgso33" FLOAT DOUBLE
"cgdo33" FLOAT DOUBLE
"cj33" FLOAT DOUBLE
"cjsw33" FLOAT DOUBLE
"rsh33" FLOAT DOUBLE
"clm633" FLOAT DOUBLE
"nfalp33" FLOAT DOUBLE
"nftrp33" FLOAT DOUBLE
"mueph134" FLOAT DOUBLE
"muephl34" FLOAT DOUBLE
"vfbc34" FLOAT DOUBLE
"nsubc34" FLOAT DOUBLE
"xw34" FLOAT DOUBLE
"lover34" FLOAT DOUBLE
"cgso34" FLOAT DOUBLE
"cgdo34" FLOAT DOUBLE
"cj34" FLOAT DOUBLE
"cjsw34" FLOAT DOUBLE
"rsh34" FLOAT DOUBLE
"clm634" FLOAT DOUBLE
"nfalp34" FLOAT DOUBLE
"nftrp34" FLOAT DOUBLE
"mueph135" FLOAT DOUBLE
"muephl35" FLOAT DOUBLE
"vfbc35" FLOAT DOUBLE
"nsubc35" FLOAT DOUBLE
"nsubp35" FLOAT DOUBLE
"xw35" FLOAT DOUBLE
"lover35" FLOAT DOUBLE
"cgso35" FLOAT DOUBLE
"cgdo35" FLOAT DOUBLE
"cj35" FLOAT DOUBLE
"cjsw35" FLOAT DOUBLE
"rsh35" FLOAT DOUBLE
"clm635" FLOAT DOUBLE
"nfalp35" FLOAT DOUBLE
"nftrp35" FLOAT DOUBLE
"mueph136" FLOAT DOUBLE
"muephl36" FLOAT DOUBLE
"vfbc36" FLOAT DOUBLE
"nsubc36" FLOAT DOUBLE
"nsubp36" FLOAT DOUBLE
"xw36" FLOAT DOUBLE
"lover36" FLOAT DOUBLE
"cgso36" FLOAT DOUBLE
"cgdo36" FLOAT DOUBLE
"cj36" FLOAT DOUBLE
"cjsw36" FLOAT DOUBLE
"rsh36" FLOAT DOUBLE
"clm636" FLOAT DOUBLE
"nfalp36" FLOAT DOUBLE
"nftrp36" FLOAT DOUBLE
"mueph137" FLOAT DOUBLE
"muephl37" FLOAT DOUBLE
"nsubc37" FLOAT DOUBLE
"xw37" FLOAT DOUBLE
"lover37" FLOAT DOUBLE
"cgso37" FLOAT DOUBLE
"cgdo37" FLOAT DOUBLE
"cj37" FLOAT DOUBLE
"cjsw37" FLOAT DOUBLE
"rsh37" FLOAT DOUBLE
"clm637" FLOAT DOUBLE
"nfalp37" FLOAT DOUBLE
"nftrp37" FLOAT DOUBLE
"mueph138" FLOAT DOUBLE
"muephl38" FLOAT DOUBLE
"nsubc38" FLOAT DOUBLE
"xw38" FLOAT DOUBLE
"lover38" FLOAT DOUBLE
"cgso38" FLOAT DOUBLE
"cgdo38" FLOAT DOUBLE
"cj38" FLOAT DOUBLE
"cjsw38" FLOAT DOUBLE
"rsh38" FLOAT DOUBLE
"clm638" FLOAT DOUBLE
"nfalp38" FLOAT DOUBLE
"nftrp38" FLOAT DOUBLE
"cj39" FLOAT DOUBLE
"cjsw39" FLOAT DOUBLE
"nsub39" FLOAT DOUBLE
"ld39" FLOAT DOUBLE
"wd39" FLOAT DOUBLE
"mueph140" FLOAT DOUBLE
"muephl40" FLOAT DOUBLE
"vfbc40" FLOAT DOUBLE
"nsubc40" FLOAT DOUBLE
"xw40" FLOAT DOUBLE
"lover40" FLOAT DOUBLE
"cgso40" FLOAT DOUBLE
"cgdo40" FLOAT DOUBLE
"cj40" FLOAT DOUBLE
"cjsw40" FLOAT DOUBLE
"rsh40" FLOAT DOUBLE
"clm640" FLOAT DOUBLE
"nfalp40" FLOAT DOUBLE
"nftrp40" FLOAT DOUBLE
"mueph141" FLOAT DOUBLE
"muephl41" FLOAT DOUBLE
"nsubc41" FLOAT DOUBLE
"xw41" FLOAT DOUBLE
"lover41" FLOAT DOUBLE
"cgso41" FLOAT DOUBLE
"cgdo41" FLOAT DOUBLE
"cj41" FLOAT DOUBLE
"cjsw41" FLOAT DOUBLE
"rsh41" FLOAT DOUBLE
"clm641" FLOAT DOUBLE
"nfalp41" FLOAT DOUBLE
"nftrp41" FLOAT DOUBLE
"cj42" FLOAT DOUBLE
"cjsw42" FLOAT DOUBLE
"nsub42" FLOAT DOUBLE
"ld42" FLOAT DOUBLE
"wd42" FLOAT DOUBLE
"cj43" FLOAT DOUBLE
"cjsw43" FLOAT DOUBLE
"nsub43" FLOAT DOUBLE
"npeak43" FLOAT DOUBLE
"rhv43" FLOAT DOUBLE
"cj44" FLOAT DOUBLE
"cjsw44" FLOAT DOUBLE
"nsub44" FLOAT DOUBLE
"npeak44" FLOAT DOUBLE
"rhv44" FLOAT DOUBLE
"cj45" FLOAT DOUBLE
"cjsw45" FLOAT DOUBLE
"nsub45" FLOAT DOUBLE
"npeak45" FLOAT DOUBLE
"rhv45" FLOAT DOUBLE
"cj46" FLOAT DOUBLE
"cjsw46" FLOAT DOUBLE
"nsub46" FLOAT DOUBLE
"npeak46" FLOAT DOUBLE
"rhv46" FLOAT DOUBLE
"beta147" FLOAT DOUBLE
"beta247" FLOAT DOUBLE
"rj47" FLOAT DOUBLE
"cj47" FLOAT DOUBLE
"cjsw47" FLOAT DOUBLE
"cgdx147" FLOAT DOUBLE
"nsub47" FLOAT DOUBLE
"npeak47" FLOAT DOUBLE
"rhv47" FLOAT DOUBLE
"beta148" FLOAT DOUBLE
"beta248" FLOAT DOUBLE
"rj48" FLOAT DOUBLE
"cj48" FLOAT DOUBLE
"cjsw48" FLOAT DOUBLE
"cgdx148" FLOAT DOUBLE
"nsub48" FLOAT DOUBLE
"npeak48" FLOAT DOUBLE
"rhv48" FLOAT DOUBLE
"mueph149" FLOAT DOUBLE
"muephl49" FLOAT DOUBLE
"vfbc49" FLOAT DOUBLE
"tox49" FLOAT DOUBLE
"nsubc49" FLOAT DOUBLE
"nsubp49" FLOAT DOUBLE
"rd49" FLOAT DOUBLE
"rdvd49" FLOAT DOUBLE
"loverld49" FLOAT DOUBLE
"cgso49" FLOAT DOUBLE
"cgdo49" FLOAT DOUBLE
"cj49" FLOAT DOUBLE
"cjsw49" FLOAT DOUBLE
"mueph150" FLOAT DOUBLE
"muephl50" FLOAT DOUBLE
"vfbc50" FLOAT DOUBLE
"tox50" FLOAT DOUBLE
"nsubc50" FLOAT DOUBLE
"nsubp50" FLOAT DOUBLE
"rd50" FLOAT DOUBLE
"rdvd50" FLOAT DOUBLE
"loverld50" FLOAT DOUBLE
"cgso50" FLOAT DOUBLE
"cgdo50" FLOAT DOUBLE
"cj50" FLOAT DOUBLE
"cjsw50" FLOAT DOUBLE
"cj51" FLOAT DOUBLE
"cjsw51" FLOAT DOUBLE
"nsub51" FLOAT DOUBLE
"npeak51" FLOAT DOUBLE
"k151" FLOAT DOUBLE
"cj52" FLOAT DOUBLE
"cjsw52" FLOAT DOUBLE
"nsub52" FLOAT DOUBLE
"npeak52" FLOAT DOUBLE
"k152" FLOAT DOUBLE
"cj53" FLOAT DOUBLE
"cjsw53" FLOAT DOUBLE
"nsub53" FLOAT DOUBLE
"npeak53" FLOAT DOUBLE
"k153" FLOAT DOUBLE
"cj54" FLOAT DOUBLE
"cjsw54" FLOAT DOUBLE
"nsub54" FLOAT DOUBLE
"npeak54" FLOAT DOUBLE
"k154" FLOAT DOUBLE
"cj55" FLOAT DOUBLE
"cjsw55" FLOAT DOUBLE
"nsub55" FLOAT DOUBLE
"npeak55" FLOAT DOUBLE
"k155" FLOAT DOUBLE
"cj56" FLOAT DOUBLE
"cjsw56" FLOAT DOUBLE
"nsub56" FLOAT DOUBLE
"npeak56" FLOAT DOUBLE
"k156" FLOAT DOUBLE
"cj57" FLOAT DOUBLE
"cjsw57" FLOAT DOUBLE
"nsub57" FLOAT DOUBLE
"npeak57" FLOAT DOUBLE
"k157" FLOAT DOUBLE
"cj58" FLOAT DOUBLE
"cjsw58" FLOAT DOUBLE
"nsub58" FLOAT DOUBLE
"npeak58" FLOAT DOUBLE
"k158" FLOAT DOUBLE
"cj59" FLOAT DOUBLE
"cjsw59" FLOAT DOUBLE
"nsub59" FLOAT DOUBLE
"npeak59" FLOAT DOUBLE
"k159" FLOAT DOUBLE
"cj60" FLOAT DOUBLE
"cjsw60" FLOAT DOUBLE
"nsub60" FLOAT DOUBLE
"npeak60" FLOAT DOUBLE
"k160" FLOAT DOUBLE
"cj61" FLOAT DOUBLE
"cjsw61" FLOAT DOUBLE
"nsub61" FLOAT DOUBLE
"npeak61" FLOAT DOUBLE
"k161" FLOAT DOUBLE
"cj62" FLOAT DOUBLE
"cjsw62" FLOAT DOUBLE
"nsub62" FLOAT DOUBLE
"npeak62" FLOAT DOUBLE
"k162" FLOAT DOUBLE
"nsub63" FLOAT DOUBLE
"npeak63" FLOAT DOUBLE
"nsub64" FLOAT DOUBLE
"npeak64" FLOAT DOUBLE
"rc65" FLOAT DOUBLE
"re65" FLOAT DOUBLE
"cje65" FLOAT DOUBLE
"cjc65" FLOAT DOUBLE
"mis_lat2" FLOAT DOUBLE
"mise_lat2" FLOAT DOUBLE
"misv_lat2" FLOAT DOUBLE
"rc66" FLOAT DOUBLE
"re66" FLOAT DOUBLE
"cje66" FLOAT DOUBLE
"tf66" FLOAT DOUBLE
"mis_vert10" FLOAT DOUBLE
"mbf_vert10" FLOAT DOUBLE
"mise_vert10" FLOAT DOUBLE
"cgsa67" FLOAT DOUBLE
"cgsp67" FLOAT DOUBLE
"cgda67" FLOAT DOUBLE
"cgdp67" FLOAT DOUBLE
"mr_rdiffn3" FLOAT DOUBLE
"cgsa68" FLOAT DOUBLE
"cgsp68" FLOAT DOUBLE
"cgda68" FLOAT DOUBLE
"cgdp68" FLOAT DOUBLE
"mr_rdiffp3" FLOAT DOUBLE
"cgsa69" FLOAT DOUBLE
"cgsp69" FLOAT DOUBLE
"cgda69" FLOAT DOUBLE
"cgdp69" FLOAT DOUBLE
"mr_rdiffn" FLOAT DOUBLE
"cgsa70" FLOAT DOUBLE
"cgsp70" FLOAT DOUBLE
"cgda70" FLOAT DOUBLE
"cgdp70" FLOAT DOUBLE
"mr_rdiffp" FLOAT DOUBLE
"mr_rpoly1" FLOAT DOUBLE
"cgsa72" FLOAT DOUBLE
"cgsp72" FLOAT DOUBLE
"cgda72" FLOAT DOUBLE
"cgdp72" FLOAT DOUBLE
"wd72" FLOAT DOUBLE
"mr_rnwell" FLOAT DOUBLE
"mr_rpoly2" FLOAT DOUBLE
"mr_rpoly2p" FLOAT DOUBLE
"mr_rpoly2ph" FLOAT DOUBLE
"mr_rpolyh" FLOAT DOUBLE
"rsh77" FLOAT DOUBLE
"wd77" FLOAT DOUBLE
"mr_rpolyz" FLOAT DOUBLE
"rsh78" FLOAT DOUBLE
"wd78" FLOAT DOUBLE
"cwa78" FLOAT DOUBLE
"cwp78" FLOAT DOUBLE
"cjod178" FLOAT DOUBLE
"cjod278" FLOAT DOUBLE
"rw1d78" FLOAT DOUBLE
"rw1078" FLOAT DOUBLE
"rw2d78" FLOAT DOUBLE
"rw2078" FLOAT DOUBLE
"mr_rpoly2rf" FLOAT DOUBLE
"rsh79" FLOAT DOUBLE
"wd79" FLOAT DOUBLE
"cwa79" FLOAT DOUBLE
"cwp79" FLOAT DOUBLE
"cjod179" FLOAT DOUBLE
"cjod279" FLOAT DOUBLE
"rw1d79" FLOAT DOUBLE
"rw1079" FLOAT DOUBLE
"rw2d79" FLOAT DOUBLE
"rw2079" FLOAT DOUBLE
"mr_rpolyhrf" FLOAT DOUBLE
"cgsa80" FLOAT DOUBLE
"cgsp80" FLOAT DOUBLE
"cgda80" FLOAT DOUBLE
"cgdp80" FLOAT DOUBLE
"wd80" FLOAT DOUBLE
"fdis83" FLOAT DOUBLE
"rdis83" FLOAT DOUBLE
"fdrs83" FLOAT DOUBLE
"rar83" FLOAT DOUBLE
"is83" FLOAT DOUBLE
"rc83" FLOAT DOUBLE
"bvbe83" FLOAT DOUBLE
"bvbc83" FLOAT DOUBLE
"cje83" FLOAT DOUBLE
"cjc83" FLOAT DOUBLE
"rz84" FLOAT DOUBLE
"isf84" FLOAT DOUBLE
"ca85" FLOAT DOUBLE
"cp85" FLOAT DOUBLE
"mc_cpoly" FLOAT DOUBLE
"ca86" FLOAT DOUBLE
"vc286" FLOAT DOUBLE
"mc_cmim" FLOAT DOUBLE
"ca87" FLOAT DOUBLE
"vc1a87" FLOAT DOUBLE
"vc2a87" FLOAT DOUBLE
"mc_cpmim" FLOAT DOUBLE
"cma88" FLOAT DOUBLE
"cmp88" FLOAT DOUBLE
"mc_cmimrf" FLOAT DOUBLE
"ca89" FLOAT DOUBLE
"cp89" FLOAT DOUBLE
"mr_cpolyrf" FLOAT DOUBLE
"ca90" FLOAT DOUBLE
"cp90" FLOAT DOUBLE
"nsub91" FLOAT DOUBLE
"npeak91" FLOAT DOUBLE
"mv_cvar" FLOAT DOUBLE
"mu_cvar" FLOAT DOUBLE
"cpad92" FLOAT DOUBLE
"cw1092" FLOAT DOUBLE
"cw2092" FLOAT DOUBLE
"cjod192" FLOAT DOUBLE
"cjod292" FLOAT DOUBLE
"cpad93" FLOAT DOUBLE
"cjw93" FLOAT DOUBLE
"cjod193" FLOAT DOUBLE
"cjod293" FLOAT DOUBLE
"bvr154" FLOAT DOUBLE
"isf154" FLOAT DOUBLE
"cjor154" FLOAT DOUBLE
"vbd1155" FLOAT DOUBLE
"rsd1155" FLOAT DOUBLE
"cjcpnp1155" FLOAT DOUBLE
"cjepnp2155" FLOAT DOUBLE
"ispnp1155" FLOAT DOUBLE
"ispnp2155" FLOAT DOUBLE
"nzd2155" FLOAT DOUBLE
"bvr156" FLOAT DOUBLE
"isf156" FLOAT DOUBLE
"cjor156" FLOAT DOUBLE
"vbd1157" FLOAT DOUBLE
"rsd1157" FLOAT DOUBLE
"cjcpnp1157" FLOAT DOUBLE
"cjepnp2157" FLOAT DOUBLE
"ispnp1157" FLOAT DOUBLE
"ispnp2157" FLOAT DOUBLE
"nzd2157" FLOAT DOUBLE
"bvr158" FLOAT DOUBLE
"isf158" FLOAT DOUBLE
"cjor158" FLOAT DOUBLE
"bvr159" FLOAT DOUBLE
"isf159" FLOAT DOUBLE
"cjor159" FLOAT DOUBLE
"bvr160" FLOAT DOUBLE
"isf160" FLOAT DOUBLE
"cjor160" FLOAT DOUBLE
"deltgox" FLOAT DOUBLE
"delvton" FLOAT DOUBLE
"delvtop" FLOAT DOUBLE
"deluon" FLOAT DOUBLE
"deluop" FLOAT DOUBLE
"dell" FLOAT DOUBLE
"delw" FLOAT DOUBLE
"deltgoxt" FLOAT DOUBLE
"delvtont" FLOAT DOUBLE
"delvtopt" FLOAT DOUBLE
"deluont" FLOAT DOUBLE
"deluopt" FLOAT DOUBLE
"dellt" FLOAT DOUBLE
"delwt" FLOAT DOUBLE
"deltgoxm" FLOAT DOUBLE
"delvtonm" FLOAT DOUBLE
"delvtonmh" FLOAT DOUBLE
"delvtopm" FLOAT DOUBLE
"deluonm" FLOAT DOUBLE
"deluonmh" FLOAT DOUBLE
"deluopm" FLOAT DOUBLE
"dellm" FLOAT DOUBLE
"delwm" FLOAT DOUBLE
"deltgoxtlv" FLOAT DOUBLE
"delvtontlv" FLOAT DOUBLE
"delvtoptlv" FLOAT DOUBLE
"deluontlv" FLOAT DOUBLE
"deluoptlv" FLOAT DOUBLE
"delltlv" FLOAT DOUBLE
"delwtlv" FLOAT DOUBLE
"deltgoxmlv" FLOAT DOUBLE
"delvtonmlv" FLOAT DOUBLE
"delvtopmlv" FLOAT DOUBLE
"deluonmlv" FLOAT DOUBLE
"deluopmlv" FLOAT DOUBLE
"dellmlv" FLOAT DOUBLE
"delwmlv" FLOAT DOUBLE
"deltgoxh" FLOAT DOUBLE
"delvtonh" FLOAT DOUBLE
"delvtoph" FLOAT DOUBLE
"deluonh" FLOAT DOUBLE
"deluoneh" FLOAT DOUBLE
"deluoph" FLOAT DOUBLE
"dellh" FLOAT DOUBLE
"delwh" FLOAT DOUBLE
"delrj" FLOAT DOUBLE
"delbeta" FLOAT DOUBLE
"drdiffn" FLOAT DOUBLE
"drdiffp" FLOAT DOUBLE
"drdiffnr" FLOAT DOUBLE
"drdiffps" FLOAT DOUBLE
"drpjfet" FLOAT DOUBLE
"ratiorw" FLOAT DOUBLE
"drpoly1" FLOAT DOUBLE
"dwdpoly1" FLOAT DOUBLE
"dwdpoly" FLOAT DOUBLE
"drpolyp" FLOAT DOUBLE
"dwdpoly2" FLOAT DOUBLE
"drpoly2" FLOAT DOUBLE
"drpoly2p" FLOAT DOUBLE
"drpoly2ph" FLOAT DOUBLE
"drpolyh" FLOAT DOUBLE
"dwdpolyh" FLOAT DOUBLE
"cgsdon" FLOAT DOUBLE
"cgbon" FLOAT DOUBLE
"cgsdop" FLOAT DOUBLE
"cgbop" FLOAT DOUBLE
"cgsont" FLOAT DOUBLE
"cgdont" FLOAT DOUBLE
"cgbont" FLOAT DOUBLE
"cgsonit" FLOAT DOUBLE
"cgdonit" FLOAT DOUBLE
"cgbonit" FLOAT DOUBLE
"cgsopt" FLOAT DOUBLE
"cgdopt" FLOAT DOUBLE
"cgbopt" FLOAT DOUBLE
"cgsdonm" FLOAT DOUBLE
"cgbonm" FLOAT DOUBLE
"cgsdopm" FLOAT DOUBLE
"cgbopm" FLOAT DOUBLE
"cgsonm50" FLOAT DOUBLE
"cgdonm50" FLOAT DOUBLE
"cgbonm50" FLOAT DOUBLE
"cgsonim50" FLOAT DOUBLE
"cgdonim50" FLOAT DOUBLE
"cgbonim50" FLOAT DOUBLE
"cgsopm50" FLOAT DOUBLE
"cgdopm50" FLOAT DOUBLE
"cgbopm50" FLOAT DOUBLE
"cgsdonh" FLOAT DOUBLE
"cgbonh" FLOAT DOUBLE
"cgsdoph" FLOAT DOUBLE
"cgboph" FLOAT DOUBLE
"cgsdonlv" FLOAT DOUBLE
"cgbonlv" FLOAT DOUBLE
"cgsdonmlv" FLOAT DOUBLE
"cgbonmlv" FLOAT DOUBLE
"cgsdopmlv" FLOAT DOUBLE
"cgbopmlv" FLOAT DOUBLE
"cgsdoplv" FLOAT DOUBLE
"cgboplv" FLOAT DOUBLE
"gummelbi" FLOAT DOUBLE
"recombbi" FLOAT DOUBLE
"ratiocje" FLOAT DOUBLE
"ratiocjc" FLOAT DOUBLE
"ratiocjs" FLOAT DOUBLE
"ratiorcb" FLOAT DOUBLE
"ratioreb" FLOAT DOUBLE
"extrapar" FLOAT DOUBLE
"ratiobv" FLOAT DOUBLE
"rbetabi" FLOAT DOUBLE
"recombpa" FLOAT DOUBLE
"norzener" FLOAT DOUBLE
"gummelpa" FLOAT DOUBLE
"mv_modn" FLOAT DOUBLE
"mu_modn" FLOAT DOUBLE
"mv_modnm" FLOAT DOUBLE
"mu_modnm" FLOAT DOUBLE
"mv_modnl" FLOAT DOUBLE
"mu_modnl" FLOAT DOUBLE
"mv_modnml" FLOAT DOUBLE
"mu_modnml" FLOAT DOUBLE
"mv_modpm" FLOAT DOUBLE
"mu_modpm" FLOAT DOUBLE
"mv_modpml" FLOAT DOUBLE
"mu_modpml" FLOAT DOUBLE
"mv_modp" FLOAT DOUBLE
"mu_modp" FLOAT DOUBLE
"mv_modpl" FLOAT DOUBLE
"mu_modpl" FLOAT DOUBLE
"mv_modnmh" FLOAT DOUBLE
"mu_modnmh" FLOAT DOUBLE
"mv_modnmhl" FLOAT DOUBLE
"mu_modnmhl" FLOAT DOUBLE
"mv_modnh" FLOAT DOUBLE
"mu_modnh" FLOAT DOUBLE
"mv_modnhl" FLOAT DOUBLE
"mu_modnhl" FLOAT DOUBLE
"mv_modn30m" FLOAT DOUBLE
"mu_modn30m" FLOAT DOUBLE
"mv_modn18t" FLOAT DOUBLE
"mu_modn18t" FLOAT DOUBLE
"mv_modpd30m" FLOAT DOUBLE
"mu_modpd30m" FLOAT DOUBLE
"mv_modp30m" FLOAT DOUBLE
"mu_modp30m" FLOAT DOUBLE
"mv_nmosw_2n" FLOAT DOUBLE
"mu_nmosw_2n" FLOAT DOUBLE
"mv_nmosw_3n" FLOAT DOUBLE
"mu_nmosw_3n" FLOAT DOUBLE
"mv_nmosw_4n" FLOAT DOUBLE
"mu_nmosw_4n" FLOAT DOUBLE
"mv_nmosmw_2n" FLOAT DOUBLE
"mu_nmosmw_2n" FLOAT DOUBLE
"mv_nmosmw_3n" FLOAT DOUBLE
"mu_nmosmw_3n" FLOAT DOUBLE
"mv_nmosmw_4n" FLOAT DOUBLE
"mu_nmosmw_4n" FLOAT DOUBLE
"mv_pmosw_2n" FLOAT DOUBLE
"mu_pmosw_2n" FLOAT DOUBLE
"mv_pmosw_3n" FLOAT DOUBLE
"mu_pmosw_3n" FLOAT DOUBLE
"mv_pmosw_4n" FLOAT DOUBLE
"mu_pmosw_4n" FLOAT DOUBLE
"mv_pmosmw_2n" FLOAT DOUBLE
"mu_pmosmw_2n" FLOAT DOUBLE
"mv_pmosmw_3n" FLOAT DOUBLE
"mu_pmosmw_3n" FLOAT DOUBLE
"mv_pmosmw_4n" FLOAT DOUBLE
"mu_pmosmw_4n" FLOAT DOUBLE
"mv_modnrf53" FLOAT DOUBLE
"mu_modnrf53" FLOAT DOUBLE
"mv_modprf53" FLOAT DOUBLE
"mu_modprf53" FLOAT DOUBLE
"TOPMET" FLOAT DOUBLE
"PHD_COATING" FLOAT DOUBLE
"PRIMLIB_WIP" FLOAT DOUBLE
"cmim" FLOAT DOUBLE
"cpmim" FLOAT DOUBLE
"cpmimc" FLOAT DOUBLE
"cpoly" FLOAT DOUBLE
"cpolyc" FLOAT DOUBLE
"cpolyrf" FLOAT DOUBLE
"cvar" FLOAT DOUBLE
"cvarm" FLOAT DOUBLE
"cvart" FLOAT DOUBLE
"moddpm" FLOAT DOUBLE
"esdfdn5" FLOAT DOUBLE
"esdfdp5" FLOAT DOUBLE
"esdgcn5" FLOAT DOUBLE
"esdgcp5" FLOAT DOUBLE
"esdmodn" FLOAT DOUBLE
"esdmodnm" FLOAT DOUBLE
"esdpd18" FLOAT DOUBLE
"esdpd26" FLOAT DOUBLE
"esdpd30" FLOAT DOUBLE
"esdmodp" FLOAT DOUBLE
"esmoddpm" FLOAT DOUBLE
"lat2" FLOAT DOUBLE
"modn18t" FLOAT DOUBLE
"modn30m" FLOAT DOUBLE
"modn" FLOAT DOUBLE
"modnh" FLOAT DOUBLE
"modnhl" FLOAT DOUBLE
"modnl" FLOAT DOUBLE
"modnm" FLOAT DOUBLE
"modnmh" FLOAT DOUBLE
"modnmhl" FLOAT DOUBLE
"modnml" FLOAT DOUBLE
"modnmw" FLOAT DOUBLE
"modnrf" FLOAT DOUBLE
"modnw" FLOAT DOUBLE
"nwd" FLOAT DOUBLE
"padvdd" FLOAT DOUBLE
"padvss" FLOAT DOUBLE
"pfuse" FLOAT DOUBLE
"phdnwa850" FLOAT DOUBLE
"phdnwb850" FLOAT DOUBLE
"modp30m" FLOAT DOUBLE
"modp" FLOAT DOUBLE
"modpd30m" FLOAT DOUBLE
"modpl" FLOAT DOUBLE
"modpm" FLOAT DOUBLE
"modpml" FLOAT DOUBLE
"modpmw" FLOAT DOUBLE
"modprf" FLOAT DOUBLE
"modpw" FLOAT DOUBLE
"rdiffn3" FLOAT DOUBLE
"rdiffp3" FLOAT DOUBLE
"rnwell" FLOAT DOUBLE
"rpoly1" FLOAT DOUBLE
"rpoly1c" FLOAT DOUBLE
"rpoly2" FLOAT DOUBLE
"rpoly2c" FLOAT DOUBLE
"rpoly2p" FLOAT DOUBLE
"rpoly2pc" FLOAT DOUBLE
"rpoly2ph" FLOAT DOUBLE
"rpoly2phc" FLOAT DOUBLE
"rpoly2rf" FLOAT DOUBLE
"rpolyh" FLOAT DOUBLE
"rpolyhc" FLOAT DOUBLE
"rpolyhrf" FLOAT DOUBLE
"rpolyz" FLOAT DOUBLE
"rpolyzc" FLOAT DOUBLE
"rpolyzrf" FLOAT DOUBLE
"sbd5" FLOAT DOUBLE
"subdiode" FLOAT DOUBLE
"vert10" FLOAT DOUBLE
"welldiode" FLOAT DOUBLE
"zd2sm24" FLOAT DOUBLE
"SP014S300C" FLOAT DOUBLE
"SP018S300C" FLOAT DOUBLE
"SP020S180C" FLOAT DOUBLE
"SP023S200C" FLOAT DOUBLE
"SP025C200C" FLOAT DOUBLE
"SP026S200C" FLOAT DOUBLE
"SP028C200C" FLOAT DOUBLE
"SP028S300C" FLOAT DOUBLE
"SP030C200C" FLOAT DOUBLE
"SP037S180C" FLOAT DOUBLE
"SP038S300C" FLOAT DOUBLE
"SP040C200C" FLOAT DOUBLE
"SP040C300C" FLOAT DOUBLE
"SP045C200C" FLOAT DOUBLE
"SP047S180C" FLOAT DOUBLE
"SP050S155C" FLOAT DOUBLE
"SP051C300C" FLOAT DOUBLE
"SP068C300C" FLOAT DOUBLE
"SP090C200C" FLOAT DOUBLE
"SP090S155C" FLOAT DOUBLE
"SP112C300C" FLOAT DOUBLE
"SP140C200C" FLOAT DOUBLE
"SP200C200C" FLOAT DOUBLE
"SY014C165C" FLOAT DOUBLE
"SY015C200C" FLOAT DOUBLE
"SY016C180C" FLOAT DOUBLE
"SY017C165C" FLOAT DOUBLE
"SY019C180C" FLOAT DOUBLE
"SY028C160C" FLOAT DOUBLE
"SP014S300D" FLOAT DOUBLE
"SP020S180D" FLOAT DOUBLE
"SP026S200D" FLOAT DOUBLE
"SP037S180D" FLOAT DOUBLE
"SP047S180D" FLOAT DOUBLE
"SP050S155D" FLOAT DOUBLE
"SP090S155D" FLOAT DOUBLE
"SP011S200T" FLOAT DOUBLE
"SP015S250T" FLOAT DOUBLE
"SP020S250T" FLOAT DOUBLE
"SP021S200T" FLOAT DOUBLE
"SP024S250T" FLOAT DOUBLE
"SP031S250T" FLOAT DOUBLE
"SP033S150T" FLOAT DOUBLE
"SP037S250T" FLOAT DOUBLE
"SP047S250T" FLOAT DOUBLE
"SP049S300T" FLOAT DOUBLE
"SP060S300T" FLOAT DOUBLE
"SP073S250T" FLOAT DOUBLE
"SP100S250T" FLOAT DOUBLE
"SP133S300T" FLOAT DOUBLE
"DI15PT" FLOAT DOUBLE
"DI20PT" FLOAT DOUBLE
"DI25PT" FLOAT DOUBLE
"DI30PT" FLOAT DOUBLE
"DI35PT" FLOAT DOUBLE
"DI40PT" FLOAT DOUBLE
"DI45PT" FLOAT DOUBLE
"DI50PT" FLOAT DOUBLE
"DI55PT" FLOAT DOUBLE
"DI60PT" FLOAT DOUBLE
) PROP(
"key" "parameters"
)
VALUE
"top-level" "top-level" (
2.700000000000000e+01
2.700000000000000e+01
2.700000000000000e+01
0.000000000000000e+00
2.700000000000000e+01
1.000000000000000e+03
0.000000000000000e+00
1.000000000000000e-02
3.300000000000000e+00
3.300000000000000e+00
3.300000000000000e+00
3.300000000000000e+00
8.355114153102040e-04
2.564009841065854e-10
2.431163542516530e+17
2.739309813769327e+17
-9.552720580192308e-01
1.290603821740772e+01
1.032763298027217e-03
2.452228559646756e-10
2.741394741062075e+17
2.286744375300799e+17
-4.736285543582231e-03
1.317111079886365e+01
7.377490657903254e-04
2.767257468774915e-10
1.504166788607836e+17
2.218026926338271e+17
1.768504987001643e-01
1.261928821264304e+01
2.690121006675996e-03
2.471990775782615e-10
1.528413272190839e+17
1.411538388251896e+17
5.880421392622405e-01
1.257808031575454e+01
1.256037448388990e-03
2.850484967375174e-10
1.043105450788513e+17
7.677526855934947e+16
-3.211468397924388e-02
1.049948582085942e+01
1.218448757544160e-03
3.512184604723006e-10
8.022541014065966e+16
6.204366479262455e+16
5.468397923415669e-01
9.922459438359269e+00
9.883436717772857e-04
2.348320044483989e-10
2.943277662120760e+17
-5.342364159886533e-08
1.027941779029821e-07
1.355607121180743e-03
3.137764936033636e-10
7.644853138998150e+16
9.132375089275158e+16
1.047282977250425e+00
1.133439655627814e+01
1.614555111512542e-03
4.195721049141138e-10
1.571970960780978e+17
8.075459355415758e+16
4.133562444364929e-01
1.068971169614737e+01
1.251610410952009e-03
3.322065788824111e-10
7.303068681135774e+16
-6.572159252769828e-08
3.415386368916941e-08
7.607735015451909e-05
4.352905177627690e-10
2.110582830086350e+17
2.001873019583523e+17
1.799880100168288e+03
6.254039070142899e-04
3.114811021368951e-10
1.331314445939846e+17
1.283817128448747e+17
1.575332806118764e+03
6.858477452769876e-05
4.807724668504670e-10
2.382027625404298e+17
2.133397562254220e+17
1.168465777602047e+03
8.244178679594770e-04
1.923214472481050e-10
1.419699758283794e+17
1.813196333805099e+17
1.365537473387085e+03
4.927227525001858e+00
5.425291209022514e+00
7.584466993324459e-01
9.113256231229752e-04
2.287054554326460e-10
4.275925920065492e-10
2.643290564763360e+17
2.504496570769697e+17
6.744282187069766e-03
5.196997701891698e+00
2.430661899983883e+00
9.343842271559406e-01
1.034205651534721e-03
3.070028579095379e-10
3.699346480220556e-10
1.770017589011229e+17
2.078939096819609e+17
9.470894887456671e-03
7.803253338442743e+03
3.745455821620859e-01
-4.596247200991446e-01
1.574605745822191e-08
5.391719274405110e+16
1.245343841693737e+17
8.115520720980596e-03
3.576613956082891e-02
4.084829561784864e-07
2.333406003367156e-10
4.009624460696243e-10
1.444910333120823e-03
3.897374975923449e-10
8.138423554387969e+03
3.097545458065719e-01
-4.471733266314911e-01
1.458082081563771e-08
5.096799464573618e+16
1.138512266014796e+17
8.441318775864411e-03
1.842704680637177e-02
4.474594116397202e-07
2.071263786813244e-10
3.597337876534089e-10
1.374758700653911e-03
3.242146255504340e-10
7.952778652778362e-04
2.923559125629254e-10
1.915781463041901e+17
2.149480390025112e+17
5.199022321032190e-01
8.330921004591510e-04
2.915630803909153e-10
2.014698184380308e+17
2.193658684856762e+17
6.606356426985397e-01
1.032720456597162e-03
2.491818561684340e-10
1.933532808041200e+17
2.045415572915183e+17
5.886808837052868e-01
8.315143986681943e-04
2.338073028950021e-10
1.732870391145348e+17
1.439137642970894e+17
9.660209202516379e-01
9.234644588339143e-04
2.847457173047587e-10
1.737003253426403e+17
1.406797215158634e+17
1.046349110599867e+00
8.100739627378062e-04
2.597140395082534e-10
1.704193572137505e+17
1.404499582861525e+17
1.015450194822305e+00
1.577571284826845e-03
4.315568619291298e-10
1.125269162911177e+17
9.545895655336739e+16
2.707503340531940e-01
1.371990880724043e-03
2.764713878859765e-10
9.830664090547710e+16
9.298850939278042e+16
2.959350247031881e-01
1.605226783193648e-03
4.252820066525601e-10
9.491382410550490e+16
8.591624697626549e+16
3.688976275747736e-01
1.135302500296384e-03
2.851562983589247e-10
6.116545696929097e+16
8.848014821720178e+16
5.879802030033616e-01
1.519165253788233e-03
3.097215828835033e-10
5.954643102083355e+16
8.308349500336910e+16
5.277077347865345e-01
1.634879228305072e-03
2.720467095263302e-10
6.776607846636325e+16
8.609620100207715e+16
5.328316305565917e-01
2.527843407565728e+17
2.717038042534143e+17
1.796936865882948e+17
1.408986345119774e+17
2.118017073895223e+04
-6.826548800021690e-02
1.881906735110516e+17
8.634455647768360e+17
1.705884372620285e-07
5.896006755018607e-08
7.557599577113986e-11
7.040682122677564e-11
7.568031762287021e-04
2.742619511205703e-10
6.930563216097653e+01
1.463503403011709e+00
3.372369850507911e-01
1.713249300011224e+01
2.816093281922117e+04
-3.325106103336159e-02
-1.184879405494127e+00
1.849893076395430e+17
-9.410608361653983e-08
7.427479163274169e-08
6.411642450922169e-11
6.758693730469794e-11
9.267838128179313e-04
2.577080299519003e-10
7.132457441650331e+01
2.891176715658792e+00
7.401217004230811e-01
2.055400287371081e+01
2.924021969227539e+04
-3.495014289246499e-02
-9.801876763795270e-01
1.709123304677615e+17
1.011902877870165e+18
1.329664170429856e-07
6.308701803397387e-08
6.994567489329725e-11
6.230084771353751e-11
8.445651213929057e-04
2.424075988493860e-10
7.880477312952280e+01
4.515372379991785e+00
3.548665393180616e-03
1.971385800669592e+01
2.815422655614419e+04
-3.531044424782879e-02
-1.160023629013449e+00
1.356400971912220e+17
4.452845919022057e+17
9.159982074990869e-08
9.699185739636421e-08
6.037910759262741e-11
6.649837294351309e-11
9.096367342695595e-04
2.353116929717362e-10
6.758627355098724e+01
5.163033244851231e+00
7.394848848561860e-01
1.932915695339484e+01
1.237838359881192e+04
-2.004425059883902e-01
6.298391769180726e+16
8.800241436555982e-08
2.731818727571517e-08
4.213737083261833e-11
4.936698929400184e-11
1.301935661509633e-03
3.345534773543477e-10
1.432980287214741e+02
1.134999248322100e+00
7.154653219226265e-01
1.566511471653841e+01
1.485852010421455e+04
-2.726595855829492e-01
6.265153000754584e+16
-2.177013380900025e-08
2.352644035232253e-08
4.829836639050395e-11
4.972123258482665e-11
1.230925019016862e-03
3.602406743597239e-10
1.586499648960307e+02
4.376261492205225e+00
-7.095192233633592e-02
1.573289341413679e+01
8.897181984833442e-04
2.526177235133946e-10
2.910955566838383e+17
-4.288419453960885e-08
9.152147793776686e-08
1.156276827855594e+04
-1.492365587445814e-01
-5.088320371258073e-01
7.080198399266228e+16
-7.596181342035531e-08
3.685138843977824e-08
3.222447079164907e-11
3.198247905416414e-11
1.443482722213865e-03
3.494788851439953e-10
1.560158771090209e+02
3.385875379844010e+00
2.239829066966711e-01
1.654157140110332e+01
1.401149881764269e+04
-1.915478976609185e-01
1.335513450260228e+17
-1.501677630867809e-07
8.013079470396042e-09
3.315156695604324e-11
3.107416265502572e-11
1.379506669911742e-03
3.661903929989785e-10
1.374891308462247e+02
2.554595806089975e+00
-9.372887591092489e-01
2.036745992533271e+01
1.379664359978400e-03
3.045133801163174e-10
6.061340017601848e+16
-7.982813475361365e-08
3.045492422680484e-08
7.945849541574717e-05
6.290203249035403e-10
2.336718715183437e+17
2.331662224817090e+17
1.235655723457225e+03
9.617161326503848e-04
2.151485129725188e-10
1.669121538374573e+17
1.537706376181916e+17
1.584223765696399e+03
8.538234557956457e-05
4.227183939842507e-10
2.419117211401462e+17
1.918010642530396e+17
1.458578006070107e+03
8.245649924541359e-04
2.868402192834765e-10
1.685228190805763e+17
1.895187516095117e+17
1.439813603600487e+03
4.373775372721255e+00
4.826817065260373e+00
7.960532374114264e-01
7.767552231531590e-04
2.022077478468418e-10
3.103402182669379e-10
2.277679039867595e+17
1.931653724987060e+17
8.232693352535833e-03
4.120825990091078e+00
2.049151160515845e+00
9.158979775547049e-01
7.297725363448263e-04
2.263959056581371e-10
3.785476993247866e-10
2.130773660784587e+17
1.901166813978925e+17
8.412724463490770e-03
7.268628608474229e+03
-1.131291510853544e-01
-4.396967984004738e-01
1.587603109236807e-08
4.910563634093665e+16
1.170895284060668e+17
7.829612674428988e-03
4.483538520901371e-02
8.424248959869146e-08
2.191320462327451e-10
4.154818547568284e-10
1.480924706211686e-03
3.403795018736273e-10
8.720272006484867e+03
3.474736995883472e-01
-4.644926822775789e-01
1.461601477675140e-08
6.154048360979837e+16
1.296705133296549e+17
7.787825717059057e-03
6.737529573918506e-02
1.308573126606643e-07
2.159745854035020e-10
3.539934166475199e-10
1.301348959767819e-03
3.121443618722260e-10
1.004928177849390e-03
2.955422209925018e-10
2.117689579829574e+17
2.184262189358119e+17
5.797390560026816e-01
9.357117356713862e-04
2.629780048737303e-10
2.293552043419331e+17
2.121306265384971e+17
5.570316267999190e-01
8.731658141773660e-04
2.477019559009932e-10
2.241762093979865e+17
2.056205891583045e+17
5.695045432096228e-01
7.608705468855332e-04
2.525462959310972e-10
1.700231409437955e+17
1.454900684785034e+17
1.002328132153852e+00
8.056790146389977e-04
2.482815559487790e-10
1.680436686601490e+17
1.462744422078984e+17
1.003295300308088e+00
9.406641322954092e-04
2.851737079326995e-10
1.743523986168206e+17
1.468249841644071e+17
9.596003681292016e-01