HEADER
"PSFversion" "1.00"
"I0n" "VGA_1"
"C1n" "analogLib_cap_spectre"
"V5n V4n V3n V2n V1n V0n" "analogLib_vdc_spectre"
"I8n" "analogLib_idc_spectre"
"V6n" "analogLib_vsin_spectre"
"R0n" "analogLib_res_spectre"
