HEADER
"PSFversion" "1.00"
"design" "(\"VGA\" \"VGA_1_pss_tb\" \"schematic\" \"\")"
"simulator" "spectre"
"temperature" "-40"
"host" ""
"date" "Apr 15 12:39:47 2026"
"title" ""
"analysisList" "()"
END
