HEADER
"PSFversion" "1.00"
"Time Stamp" "Mar 13 09:56:29 2026"
TYPE
"variable" STRUCT(
"value" FLOAT DOUBLE
) PROP( "key" "element" )
VALUE
"VDD" "variable" ( 3.3 ) PROP( )
"temp" "variable" ( 27 ) PROP( )
END
