HEADER
"PSFversion" "1.00"
"design" "(\"VGA\" \"VGA_1_tb\" \"schematic\" \"\")"
"simulator" "spectre"
"temperature" "27"
"host" ""
"date" "Apr 16 10:45:58 2026"
"title" ""
"analysisList" "()"
END
