HEADER
"PSFversion" "1.00"
"design" "(\"VGA\" \"VGA_1_wakeup_tb\" \"schematic\" \"\")"
"simulator" "spectre"
"temperature" "27"
"host" ""
"date" "Apr 16 09:36:35 2026"
"title" ""
"analysisList" "()"
END
