HEADER
"PSFversion" "1.00"
"Gv" "\:Gv"
"Bv" "\:Bv"
"Sv" "\:Sv"
