HEADER
"PSFversion" "1.00"
"MP1n MP0n" "PRIMLIB_pmos4_spectre"
"MN0n" "PRIMLIB_nmos4_spectre"
"V1n V0n" "analogLib_vdc_spectre"
"I8n I7n I6n" "analogLib_idc_spectre"
"C2n C1n C0n" "analogLib_cap_spectre"
