HEADER
"PSFversion" "1.00"
"simulator" "spectre"
"version" "24.1.0.288.isr5"
"date" "10:46:00 AM, Thur Apr 16, 2026"
"design" "// Point Netlist Generated on: Apr 16 10:45:58 2026"
"analysis type" "info"
"analysis name" "designParamVals"
"analysis description" "Circuit Information"
"xVecSorted" "unknown"
"tolerance.relative" 1.000000000000000e-04
TYPE
"top-level" STRUCT(
"temp" FLOAT DOUBLE
"tnom" FLOAT DOUBLE
"temper" FLOAT DOUBLE
"time" FLOAT DOUBLE
"temperature" FLOAT DOUBLE
"tf" FLOAT DOUBLE
"tr" FLOAT DOUBLE
"V_FREQ" FLOAT DOUBLE
"S0" FLOAT DOUBLE
"S1" FLOAT DOUBLE
"S2" FLOAT DOUBLE
"S3" FLOAT DOUBLE
"V_AMP" FLOAT DOUBLE
"VDD" FLOAT DOUBLE
"VIN_PULSE" FLOAT DOUBLE
"cj1" FLOAT DOUBLE
"cjsw1" FLOAT DOUBLE
"nsub1" FLOAT DOUBLE
"npeak1" FLOAT DOUBLE
"noia1" FLOAT DOUBLE
"noib1" FLOAT DOUBLE
"cj2" FLOAT DOUBLE
"cjsw2" FLOAT DOUBLE
"nsub2" FLOAT DOUBLE
"npeak2" FLOAT DOUBLE
"noia2" FLOAT DOUBLE
"noib2" FLOAT DOUBLE
"cj3" FLOAT DOUBLE
"cjsw3" FLOAT DOUBLE
"nsub3" FLOAT DOUBLE
"npeak3" FLOAT DOUBLE
"noia3" FLOAT DOUBLE
"noib3" FLOAT DOUBLE
"cj4" FLOAT DOUBLE
"cjsw4" FLOAT DOUBLE
"nsub4" FLOAT DOUBLE
"npeak4" FLOAT DOUBLE
"noia4" FLOAT DOUBLE
"noib4" FLOAT DOUBLE
"cj5" FLOAT DOUBLE
"cjsw5" FLOAT DOUBLE
"nsub5" FLOAT DOUBLE
"npeak5" FLOAT DOUBLE
"noia5" FLOAT DOUBLE
"noib5" FLOAT DOUBLE
"cj6" FLOAT DOUBLE
"cjsw6" FLOAT DOUBLE
"nsub6" FLOAT DOUBLE
"npeak6" FLOAT DOUBLE
"noia6" FLOAT DOUBLE
"noib6" FLOAT DOUBLE
"cj7" FLOAT DOUBLE
"cjsw7" FLOAT DOUBLE
"nsub7" FLOAT DOUBLE
"ld7" FLOAT DOUBLE
"wd7" FLOAT DOUBLE
"cj8" FLOAT DOUBLE
"cjsw8" FLOAT DOUBLE
"nsub8" FLOAT DOUBLE
"npeak8" FLOAT DOUBLE
"noia8" FLOAT DOUBLE
"noib8" FLOAT DOUBLE
"cj9" FLOAT DOUBLE
"cjsw9" FLOAT DOUBLE
"nsub9" FLOAT DOUBLE
"npeak9" FLOAT DOUBLE
"noia9" FLOAT DOUBLE
"noib9" FLOAT DOUBLE
"cj10" FLOAT DOUBLE
"cjsw10" FLOAT DOUBLE
"nsub10" FLOAT DOUBLE
"ld10" FLOAT DOUBLE
"wd10" FLOAT DOUBLE
"cj11" FLOAT DOUBLE
"cjsw11" FLOAT DOUBLE
"nsub11" FLOAT DOUBLE
"npeak11" FLOAT DOUBLE
"rhv11" FLOAT DOUBLE
"cj12" FLOAT DOUBLE
"cjsw12" FLOAT DOUBLE
"nsub12" FLOAT DOUBLE
"npeak12" FLOAT DOUBLE
"rhv12" FLOAT DOUBLE
"cj13" FLOAT DOUBLE
"cjsw13" FLOAT DOUBLE
"nsub13" FLOAT DOUBLE
"npeak13" FLOAT DOUBLE
"rhv13" FLOAT DOUBLE
"cj14" FLOAT DOUBLE
"cjsw14" FLOAT DOUBLE
"nsub14" FLOAT DOUBLE
"npeak14" FLOAT DOUBLE
"rhv14" FLOAT DOUBLE
"beta115" FLOAT DOUBLE
"beta215" FLOAT DOUBLE
"rj15" FLOAT DOUBLE
"cj15" FLOAT DOUBLE
"cjsw15" FLOAT DOUBLE
"cgdx115" FLOAT DOUBLE
"nsub15" FLOAT DOUBLE
"npeak15" FLOAT DOUBLE
"rhv15" FLOAT DOUBLE
"beta116" FLOAT DOUBLE
"beta216" FLOAT DOUBLE
"rj16" FLOAT DOUBLE
"cj16" FLOAT DOUBLE
"cjsw16" FLOAT DOUBLE
"cgdx116" FLOAT DOUBLE
"nsub16" FLOAT DOUBLE
"npeak16" FLOAT DOUBLE
"rhv16" FLOAT DOUBLE
"mueph117" FLOAT DOUBLE
"muephl17" FLOAT DOUBLE
"vfbc17" FLOAT DOUBLE
"tox17" FLOAT DOUBLE
"nsubc17" FLOAT DOUBLE
"nsubp17" FLOAT DOUBLE
"rd17" FLOAT DOUBLE
"rdvd17" FLOAT DOUBLE
"loverld17" FLOAT DOUBLE
"cgso17" FLOAT DOUBLE
"cgdo17" FLOAT DOUBLE
"cj17" FLOAT DOUBLE
"cjsw17" FLOAT DOUBLE
"mueph118" FLOAT DOUBLE
"muephl18" FLOAT DOUBLE
"vfbc18" FLOAT DOUBLE
"tox18" FLOAT DOUBLE
"nsubc18" FLOAT DOUBLE
"nsubp18" FLOAT DOUBLE
"rd18" FLOAT DOUBLE
"rdvd18" FLOAT DOUBLE
"loverld18" FLOAT DOUBLE
"cgso18" FLOAT DOUBLE
"cgdo18" FLOAT DOUBLE
"cj18" FLOAT DOUBLE
"cjsw18" FLOAT DOUBLE
"cj19" FLOAT DOUBLE
"cjsw19" FLOAT DOUBLE
"nsub19" FLOAT DOUBLE
"npeak19" FLOAT DOUBLE
"k119" FLOAT DOUBLE
"cj20" FLOAT DOUBLE
"cjsw20" FLOAT DOUBLE
"nsub20" FLOAT DOUBLE
"npeak20" FLOAT DOUBLE
"k120" FLOAT DOUBLE
"cj21" FLOAT DOUBLE
"cjsw21" FLOAT DOUBLE
"nsub21" FLOAT DOUBLE
"npeak21" FLOAT DOUBLE
"k121" FLOAT DOUBLE
"cj22" FLOAT DOUBLE
"cjsw22" FLOAT DOUBLE
"nsub22" FLOAT DOUBLE
"npeak22" FLOAT DOUBLE
"k122" FLOAT DOUBLE
"cj23" FLOAT DOUBLE
"cjsw23" FLOAT DOUBLE
"nsub23" FLOAT DOUBLE
"npeak23" FLOAT DOUBLE
"k123" FLOAT DOUBLE
"cj24" FLOAT DOUBLE
"cjsw24" FLOAT DOUBLE
"nsub24" FLOAT DOUBLE
"npeak24" FLOAT DOUBLE
"k124" FLOAT DOUBLE
"cj25" FLOAT DOUBLE
"cjsw25" FLOAT DOUBLE
"nsub25" FLOAT DOUBLE
"npeak25" FLOAT DOUBLE
"k125" FLOAT DOUBLE
"cj26" FLOAT DOUBLE
"cjsw26" FLOAT DOUBLE
"nsub26" FLOAT DOUBLE
"npeak26" FLOAT DOUBLE
"k126" FLOAT DOUBLE
"cj27" FLOAT DOUBLE
"cjsw27" FLOAT DOUBLE
"nsub27" FLOAT DOUBLE
"npeak27" FLOAT DOUBLE
"k127" FLOAT DOUBLE
"cj28" FLOAT DOUBLE
"cjsw28" FLOAT DOUBLE
"nsub28" FLOAT DOUBLE
"npeak28" FLOAT DOUBLE
"k128" FLOAT DOUBLE
"cj29" FLOAT DOUBLE
"cjsw29" FLOAT DOUBLE
"nsub29" FLOAT DOUBLE
"npeak29" FLOAT DOUBLE
"k129" FLOAT DOUBLE
"cj30" FLOAT DOUBLE
"cjsw30" FLOAT DOUBLE
"nsub30" FLOAT DOUBLE
"npeak30" FLOAT DOUBLE
"k130" FLOAT DOUBLE
"nsub31" FLOAT DOUBLE
"npeak31" FLOAT DOUBLE
"nsub32" FLOAT DOUBLE
"npeak32" FLOAT DOUBLE
"mueph133" FLOAT DOUBLE
"muephl33" FLOAT DOUBLE
"nsubc33" FLOAT DOUBLE
"nsubp33" FLOAT DOUBLE
"xw33" FLOAT DOUBLE
"lover33" FLOAT DOUBLE
"cgso33" FLOAT DOUBLE
"cgdo33" FLOAT DOUBLE
"cj33" FLOAT DOUBLE
"cjsw33" FLOAT DOUBLE
"rsh33" FLOAT DOUBLE
"clm633" FLOAT DOUBLE
"nfalp33" FLOAT DOUBLE
"nftrp33" FLOAT DOUBLE
"mueph134" FLOAT DOUBLE
"muephl34" FLOAT DOUBLE
"vfbc34" FLOAT DOUBLE
"nsubc34" FLOAT DOUBLE
"xw34" FLOAT DOUBLE
"lover34" FLOAT DOUBLE
"cgso34" FLOAT DOUBLE
"cgdo34" FLOAT DOUBLE
"cj34" FLOAT DOUBLE
"cjsw34" FLOAT DOUBLE
"rsh34" FLOAT DOUBLE
"clm634" FLOAT DOUBLE
"nfalp34" FLOAT DOUBLE
"nftrp34" FLOAT DOUBLE
"mueph135" FLOAT DOUBLE
"muephl35" FLOAT DOUBLE
"vfbc35" FLOAT DOUBLE
"nsubc35" FLOAT DOUBLE
"nsubp35" FLOAT DOUBLE
"xw35" FLOAT DOUBLE
"lover35" FLOAT DOUBLE
"cgso35" FLOAT DOUBLE
"cgdo35" FLOAT DOUBLE
"cj35" FLOAT DOUBLE
"cjsw35" FLOAT DOUBLE
"rsh35" FLOAT DOUBLE
"clm635" FLOAT DOUBLE
"nfalp35" FLOAT DOUBLE
"nftrp35" FLOAT DOUBLE
"mueph136" FLOAT DOUBLE
"muephl36" FLOAT DOUBLE
"vfbc36" FLOAT DOUBLE
"nsubc36" FLOAT DOUBLE
"nsubp36" FLOAT DOUBLE
"xw36" FLOAT DOUBLE
"lover36" FLOAT DOUBLE
"cgso36" FLOAT DOUBLE
"cgdo36" FLOAT DOUBLE
"cj36" FLOAT DOUBLE
"cjsw36" FLOAT DOUBLE
"rsh36" FLOAT DOUBLE
"clm636" FLOAT DOUBLE
"nfalp36" FLOAT DOUBLE
"nftrp36" FLOAT DOUBLE
"mueph137" FLOAT DOUBLE
"muephl37" FLOAT DOUBLE
"nsubc37" FLOAT DOUBLE
"xw37" FLOAT DOUBLE
"lover37" FLOAT DOUBLE
"cgso37" FLOAT DOUBLE
"cgdo37" FLOAT DOUBLE
"cj37" FLOAT DOUBLE
"cjsw37" FLOAT DOUBLE
"rsh37" FLOAT DOUBLE
"clm637" FLOAT DOUBLE
"nfalp37" FLOAT DOUBLE
"nftrp37" FLOAT DOUBLE
"mueph138" FLOAT DOUBLE
"muephl38" FLOAT DOUBLE
"nsubc38" FLOAT DOUBLE
"xw38" FLOAT DOUBLE
"lover38" FLOAT DOUBLE
"cgso38" FLOAT DOUBLE
"cgdo38" FLOAT DOUBLE
"cj38" FLOAT DOUBLE
"cjsw38" FLOAT DOUBLE
"rsh38" FLOAT DOUBLE
"clm638" FLOAT DOUBLE
"nfalp38" FLOAT DOUBLE
"nftrp38" FLOAT DOUBLE
"cj39" FLOAT DOUBLE
"cjsw39" FLOAT DOUBLE
"nsub39" FLOAT DOUBLE
"ld39" FLOAT DOUBLE
"wd39" FLOAT DOUBLE
"mueph140" FLOAT DOUBLE
"muephl40" FLOAT DOUBLE
"vfbc40" FLOAT DOUBLE
"nsubc40" FLOAT DOUBLE
"xw40" FLOAT DOUBLE
"lover40" FLOAT DOUBLE
"cgso40" FLOAT DOUBLE
"cgdo40" FLOAT DOUBLE
"cj40" FLOAT DOUBLE
"cjsw40" FLOAT DOUBLE
"rsh40" FLOAT DOUBLE
"clm640" FLOAT DOUBLE
"nfalp40" FLOAT DOUBLE
"nftrp40" FLOAT DOUBLE
"mueph141" FLOAT DOUBLE
"muephl41" FLOAT DOUBLE
"nsubc41" FLOAT DOUBLE
"xw41" FLOAT DOUBLE
"lover41" FLOAT DOUBLE
"cgso41" FLOAT DOUBLE
"cgdo41" FLOAT DOUBLE
"cj41" FLOAT DOUBLE
"cjsw41" FLOAT DOUBLE
"rsh41" FLOAT DOUBLE
"clm641" FLOAT DOUBLE
"nfalp41" FLOAT DOUBLE
"nftrp41" FLOAT DOUBLE
"cj42" FLOAT DOUBLE
"cjsw42" FLOAT DOUBLE
"nsub42" FLOAT DOUBLE
"ld42" FLOAT DOUBLE
"wd42" FLOAT DOUBLE
"cj43" FLOAT DOUBLE
"cjsw43" FLOAT DOUBLE
"nsub43" FLOAT DOUBLE
"npeak43" FLOAT DOUBLE
"rhv43" FLOAT DOUBLE
"cj44" FLOAT DOUBLE
"cjsw44" FLOAT DOUBLE
"nsub44" FLOAT DOUBLE
"npeak44" FLOAT DOUBLE
"rhv44" FLOAT DOUBLE
"cj45" FLOAT DOUBLE
"cjsw45" FLOAT DOUBLE
"nsub45" FLOAT DOUBLE
"npeak45" FLOAT DOUBLE
"rhv45" FLOAT DOUBLE
"cj46" FLOAT DOUBLE
"cjsw46" FLOAT DOUBLE
"nsub46" FLOAT DOUBLE
"npeak46" FLOAT DOUBLE
"rhv46" FLOAT DOUBLE
"beta147" FLOAT DOUBLE
"beta247" FLOAT DOUBLE
"rj47" FLOAT DOUBLE
"cj47" FLOAT DOUBLE
"cjsw47" FLOAT DOUBLE
"cgdx147" FLOAT DOUBLE
"nsub47" FLOAT DOUBLE
"npeak47" FLOAT DOUBLE
"rhv47" FLOAT DOUBLE
"beta148" FLOAT DOUBLE
"beta248" FLOAT DOUBLE
"rj48" FLOAT DOUBLE
"cj48" FLOAT DOUBLE
"cjsw48" FLOAT DOUBLE
"cgdx148" FLOAT DOUBLE
"nsub48" FLOAT DOUBLE
"npeak48" FLOAT DOUBLE
"rhv48" FLOAT DOUBLE
"mueph149" FLOAT DOUBLE
"muephl49" FLOAT DOUBLE
"vfbc49" FLOAT DOUBLE
"tox49" FLOAT DOUBLE
"nsubc49" FLOAT DOUBLE
"nsubp49" FLOAT DOUBLE
"rd49" FLOAT DOUBLE
"rdvd49" FLOAT DOUBLE
"loverld49" FLOAT DOUBLE
"cgso49" FLOAT DOUBLE
"cgdo49" FLOAT DOUBLE
"cj49" FLOAT DOUBLE
"cjsw49" FLOAT DOUBLE
"mueph150" FLOAT DOUBLE
"muephl50" FLOAT DOUBLE
"vfbc50" FLOAT DOUBLE
"tox50" FLOAT DOUBLE
"nsubc50" FLOAT DOUBLE
"nsubp50" FLOAT DOUBLE
"rd50" FLOAT DOUBLE
"rdvd50" FLOAT DOUBLE
"loverld50" FLOAT DOUBLE
"cgso50" FLOAT DOUBLE
"cgdo50" FLOAT DOUBLE
"cj50" FLOAT DOUBLE
"cjsw50" FLOAT DOUBLE
"cj51" FLOAT DOUBLE
"cjsw51" FLOAT DOUBLE
"nsub51" FLOAT DOUBLE
"npeak51" FLOAT DOUBLE
"k151" FLOAT DOUBLE
"cj52" FLOAT DOUBLE
"cjsw52" FLOAT DOUBLE
"nsub52" FLOAT DOUBLE
"npeak52" FLOAT DOUBLE
"k152" FLOAT DOUBLE
"cj53" FLOAT DOUBLE
"cjsw53" FLOAT DOUBLE
"nsub53" FLOAT DOUBLE
"npeak53" FLOAT DOUBLE
"k153" FLOAT DOUBLE
"cj54" FLOAT DOUBLE
"cjsw54" FLOAT DOUBLE
"nsub54" FLOAT DOUBLE
"npeak54" FLOAT DOUBLE
"k154" FLOAT DOUBLE
"cj55" FLOAT DOUBLE
"cjsw55" FLOAT DOUBLE
"nsub55" FLOAT DOUBLE
"npeak55" FLOAT DOUBLE
"k155" FLOAT DOUBLE
"cj56" FLOAT DOUBLE
"cjsw56" FLOAT DOUBLE
"nsub56" FLOAT DOUBLE
"npeak56" FLOAT DOUBLE
"k156" FLOAT DOUBLE
"cj57" FLOAT DOUBLE
"cjsw57" FLOAT DOUBLE
"nsub57" FLOAT DOUBLE
"npeak57" FLOAT DOUBLE
"k157" FLOAT DOUBLE
"cj58" FLOAT DOUBLE
"cjsw58" FLOAT DOUBLE
"nsub58" FLOAT DOUBLE
"npeak58" FLOAT DOUBLE
"k158" FLOAT DOUBLE
"cj59" FLOAT DOUBLE
"cjsw59" FLOAT DOUBLE
"nsub59" FLOAT DOUBLE
"npeak59" FLOAT DOUBLE
"k159" FLOAT DOUBLE
"cj60" FLOAT DOUBLE
"cjsw60" FLOAT DOUBLE
"nsub60" FLOAT DOUBLE
"npeak60" FLOAT DOUBLE
"k160" FLOAT DOUBLE
"cj61" FLOAT DOUBLE
"cjsw61" FLOAT DOUBLE
"nsub61" FLOAT DOUBLE
"npeak61" FLOAT DOUBLE
"k161" FLOAT DOUBLE
"cj62" FLOAT DOUBLE
"cjsw62" FLOAT DOUBLE
"nsub62" FLOAT DOUBLE
"npeak62" FLOAT DOUBLE
"k162" FLOAT DOUBLE
"nsub63" FLOAT DOUBLE
"npeak63" FLOAT DOUBLE
"nsub64" FLOAT DOUBLE
"npeak64" FLOAT DOUBLE
"rc65" FLOAT DOUBLE
"re65" FLOAT DOUBLE
"cje65" FLOAT DOUBLE
"cjc65" FLOAT DOUBLE
"mis_lat2" FLOAT DOUBLE
"mise_lat2" FLOAT DOUBLE
"misv_lat2" FLOAT DOUBLE
"rc66" FLOAT DOUBLE
"re66" FLOAT DOUBLE
"cje66" FLOAT DOUBLE
"tf66" FLOAT DOUBLE
"mis_vert10" FLOAT DOUBLE
"mbf_vert10" FLOAT DOUBLE
"mise_vert10" FLOAT DOUBLE
"cgsa67" FLOAT DOUBLE
"cgsp67" FLOAT DOUBLE
"cgda67" FLOAT DOUBLE
"cgdp67" FLOAT DOUBLE
"mr_rdiffn3" FLOAT DOUBLE
"cgsa68" FLOAT DOUBLE
"cgsp68" FLOAT DOUBLE
"cgda68" FLOAT DOUBLE
"cgdp68" FLOAT DOUBLE
"mr_rdiffp3" FLOAT DOUBLE
"cgsa69" FLOAT DOUBLE
"cgsp69" FLOAT DOUBLE
"cgda69" FLOAT DOUBLE
"cgdp69" FLOAT DOUBLE
"mr_rdiffn" FLOAT DOUBLE
"cgsa70" FLOAT DOUBLE
"cgsp70" FLOAT DOUBLE
"cgda70" FLOAT DOUBLE
"cgdp70" FLOAT DOUBLE
"mr_rdiffp" FLOAT DOUBLE
"mr_rpoly1" FLOAT DOUBLE
"cgsa72" FLOAT DOUBLE
"cgsp72" FLOAT DOUBLE
"cgda72" FLOAT DOUBLE
"cgdp72" FLOAT DOUBLE
"wd72" FLOAT DOUBLE
"mr_rnwell" FLOAT DOUBLE
"mr_rpoly2" FLOAT DOUBLE
"mr_rpoly2p" FLOAT DOUBLE
"mr_rpoly2ph" FLOAT DOUBLE
"mr_rpolyh" FLOAT DOUBLE
"rsh77" FLOAT DOUBLE
"wd77" FLOAT DOUBLE
"mr_rpolyz" FLOAT DOUBLE
"rsh78" FLOAT DOUBLE
"wd78" FLOAT DOUBLE
"cwa78" FLOAT DOUBLE
"cwp78" FLOAT DOUBLE
"cjod178" FLOAT DOUBLE
"cjod278" FLOAT DOUBLE
"rw1d78" FLOAT DOUBLE
"rw1078" FLOAT DOUBLE
"rw2d78" FLOAT DOUBLE
"rw2078" FLOAT DOUBLE
"mr_rpoly2rf" FLOAT DOUBLE
"rsh79" FLOAT DOUBLE
"wd79" FLOAT DOUBLE
"cwa79" FLOAT DOUBLE
"cwp79" FLOAT DOUBLE
"cjod179" FLOAT DOUBLE
"cjod279" FLOAT DOUBLE
"rw1d79" FLOAT DOUBLE
"rw1079" FLOAT DOUBLE
"rw2d79" FLOAT DOUBLE
"rw2079" FLOAT DOUBLE
"mr_rpolyhrf" FLOAT DOUBLE
"cgsa80" FLOAT DOUBLE
"cgsp80" FLOAT DOUBLE
"cgda80" FLOAT DOUBLE
"cgdp80" FLOAT DOUBLE
"wd80" FLOAT DOUBLE
"fdis83" FLOAT DOUBLE
"rdis83" FLOAT DOUBLE
"fdrs83" FLOAT DOUBLE
"rar83" FLOAT DOUBLE
"is83" FLOAT DOUBLE
"rc83" FLOAT DOUBLE
"bvbe83" FLOAT DOUBLE
"bvbc83" FLOAT DOUBLE
"cje83" FLOAT DOUBLE
"cjc83" FLOAT DOUBLE
"rz84" FLOAT DOUBLE
"isf84" FLOAT DOUBLE
"ca85" FLOAT DOUBLE
"cp85" FLOAT DOUBLE
"mc_cpoly" FLOAT DOUBLE
"ca86" FLOAT DOUBLE
"vc286" FLOAT DOUBLE
"mc_cmim" FLOAT DOUBLE
"ca87" FLOAT DOUBLE
"vc1a87" FLOAT DOUBLE
"vc2a87" FLOAT DOUBLE
"mc_cpmim" FLOAT DOUBLE
"cma88" FLOAT DOUBLE
"cmp88" FLOAT DOUBLE
"mc_cmimrf" FLOAT DOUBLE
"ca89" FLOAT DOUBLE
"cp89" FLOAT DOUBLE
"mr_cpolyrf" FLOAT DOUBLE
"ca90" FLOAT DOUBLE
"cp90" FLOAT DOUBLE
"nsub91" FLOAT DOUBLE
"npeak91" FLOAT DOUBLE
"mv_cvar" FLOAT DOUBLE
"mu_cvar" FLOAT DOUBLE
"cpad92" FLOAT DOUBLE
"cw1092" FLOAT DOUBLE
"cw2092" FLOAT DOUBLE
"cjod192" FLOAT DOUBLE
"cjod292" FLOAT DOUBLE
"cpad93" FLOAT DOUBLE
"cjw93" FLOAT DOUBLE
"cjod193" FLOAT DOUBLE
"cjod293" FLOAT DOUBLE
"bvr154" FLOAT DOUBLE
"isf154" FLOAT DOUBLE
"cjor154" FLOAT DOUBLE
"vbd1155" FLOAT DOUBLE
"rsd1155" FLOAT DOUBLE
"cjcpnp1155" FLOAT DOUBLE
"cjepnp2155" FLOAT DOUBLE
"ispnp1155" FLOAT DOUBLE
"ispnp2155" FLOAT DOUBLE
"nzd2155" FLOAT DOUBLE
"bvr156" FLOAT DOUBLE
"isf156" FLOAT DOUBLE
"cjor156" FLOAT DOUBLE
"vbd1157" FLOAT DOUBLE
"rsd1157" FLOAT DOUBLE
"cjcpnp1157" FLOAT DOUBLE
"cjepnp2157" FLOAT DOUBLE
"ispnp1157" FLOAT DOUBLE
"ispnp2157" FLOAT DOUBLE
"nzd2157" FLOAT DOUBLE
"bvr158" FLOAT DOUBLE
"isf158" FLOAT DOUBLE
"cjor158" FLOAT DOUBLE
"bvr159" FLOAT DOUBLE
"isf159" FLOAT DOUBLE
"cjor159" FLOAT DOUBLE
"bvr160" FLOAT DOUBLE
"isf160" FLOAT DOUBLE
"cjor160" FLOAT DOUBLE
"deltgox" FLOAT DOUBLE
"delvton" FLOAT DOUBLE
"delvtop" FLOAT DOUBLE
"deluon" FLOAT DOUBLE
"deluop" FLOAT DOUBLE
"dell" FLOAT DOUBLE
"delw" FLOAT DOUBLE
"deltgoxt" FLOAT DOUBLE
"delvtont" FLOAT DOUBLE
"delvtopt" FLOAT DOUBLE
"deluont" FLOAT DOUBLE
"deluopt" FLOAT DOUBLE
"dellt" FLOAT DOUBLE
"delwt" FLOAT DOUBLE
"deltgoxm" FLOAT DOUBLE
"delvtonm" FLOAT DOUBLE
"delvtonmh" FLOAT DOUBLE
"delvtopm" FLOAT DOUBLE
"deluonm" FLOAT DOUBLE
"deluonmh" FLOAT DOUBLE
"deluopm" FLOAT DOUBLE
"dellm" FLOAT DOUBLE
"delwm" FLOAT DOUBLE
"deltgoxtlv" FLOAT DOUBLE
"delvtontlv" FLOAT DOUBLE
"delvtoptlv" FLOAT DOUBLE
"deluontlv" FLOAT DOUBLE
"deluoptlv" FLOAT DOUBLE
"delltlv" FLOAT DOUBLE
"delwtlv" FLOAT DOUBLE
"deltgoxmlv" FLOAT DOUBLE
"delvtonmlv" FLOAT DOUBLE
"delvtopmlv" FLOAT DOUBLE
"deluonmlv" FLOAT DOUBLE
"deluopmlv" FLOAT DOUBLE
"dellmlv" FLOAT DOUBLE
"delwmlv" FLOAT DOUBLE
"deltgoxh" FLOAT DOUBLE
"delvtonh" FLOAT DOUBLE
"delvtoph" FLOAT DOUBLE
"deluonh" FLOAT DOUBLE
"deluoneh" FLOAT DOUBLE
"deluoph" FLOAT DOUBLE
"dellh" FLOAT DOUBLE
"delwh" FLOAT DOUBLE
"delrj" FLOAT DOUBLE
"delbeta" FLOAT DOUBLE
"drdiffn" FLOAT DOUBLE
"drdiffp" FLOAT DOUBLE
"drdiffnr" FLOAT DOUBLE
"drdiffps" FLOAT DOUBLE
"drpjfet" FLOAT DOUBLE
"ratiorw" FLOAT DOUBLE
"drpoly1" FLOAT DOUBLE
"dwdpoly1" FLOAT DOUBLE
"dwdpoly" FLOAT DOUBLE
"drpolyp" FLOAT DOUBLE
"dwdpoly2" FLOAT DOUBLE
"drpoly2" FLOAT DOUBLE
"drpoly2p" FLOAT DOUBLE
"drpoly2ph" FLOAT DOUBLE
"drpolyh" FLOAT DOUBLE
"dwdpolyh" FLOAT DOUBLE
"cgsdon" FLOAT DOUBLE
"cgbon" FLOAT DOUBLE
"cgsdop" FLOAT DOUBLE
"cgbop" FLOAT DOUBLE
"cgsont" FLOAT DOUBLE
"cgdont" FLOAT DOUBLE
"cgbont" FLOAT DOUBLE
"cgsonit" FLOAT DOUBLE
"cgdonit" FLOAT DOUBLE
"cgbonit" FLOAT DOUBLE
"cgsopt" FLOAT DOUBLE
"cgdopt" FLOAT DOUBLE
"cgbopt" FLOAT DOUBLE
"cgsdonm" FLOAT DOUBLE
"cgbonm" FLOAT DOUBLE
"cgsdopm" FLOAT DOUBLE
"cgbopm" FLOAT DOUBLE
"cgsonm50" FLOAT DOUBLE
"cgdonm50" FLOAT DOUBLE
"cgbonm50" FLOAT DOUBLE
"cgsonim50" FLOAT DOUBLE
"cgdonim50" FLOAT DOUBLE
"cgbonim50" FLOAT DOUBLE
"cgsopm50" FLOAT DOUBLE
"cgdopm50" FLOAT DOUBLE
"cgbopm50" FLOAT DOUBLE
"cgsdonh" FLOAT DOUBLE
"cgbonh" FLOAT DOUBLE
"cgsdoph" FLOAT DOUBLE
"cgboph" FLOAT DOUBLE
"cgsdonlv" FLOAT DOUBLE
"cgbonlv" FLOAT DOUBLE
"cgsdonmlv" FLOAT DOUBLE
"cgbonmlv" FLOAT DOUBLE
"cgsdopmlv" FLOAT DOUBLE
"cgbopmlv" FLOAT DOUBLE
"cgsdoplv" FLOAT DOUBLE
"cgboplv" FLOAT DOUBLE
"gummelbi" FLOAT DOUBLE
"recombbi" FLOAT DOUBLE
"ratiocje" FLOAT DOUBLE
"ratiocjc" FLOAT DOUBLE
"ratiocjs" FLOAT DOUBLE
"ratiorcb" FLOAT DOUBLE
"ratioreb" FLOAT DOUBLE
"extrapar" FLOAT DOUBLE
"ratiobv" FLOAT DOUBLE
"rbetabi" FLOAT DOUBLE
"recombpa" FLOAT DOUBLE
"norzener" FLOAT DOUBLE
"gummelpa" FLOAT DOUBLE
"mv_modn" FLOAT DOUBLE
"mu_modn" FLOAT DOUBLE
"mv_modnm" FLOAT DOUBLE
"mu_modnm" FLOAT DOUBLE
"mv_modnl" FLOAT DOUBLE
"mu_modnl" FLOAT DOUBLE
"mv_modnml" FLOAT DOUBLE
"mu_modnml" FLOAT DOUBLE
"mv_modpm" FLOAT DOUBLE
"mu_modpm" FLOAT DOUBLE
"mv_modpml" FLOAT DOUBLE
"mu_modpml" FLOAT DOUBLE
"mv_modp" FLOAT DOUBLE
"mu_modp" FLOAT DOUBLE
"mv_modpl" FLOAT DOUBLE
"mu_modpl" FLOAT DOUBLE
"mv_modnmh" FLOAT DOUBLE
"mu_modnmh" FLOAT DOUBLE
"mv_modnmhl" FLOAT DOUBLE
"mu_modnmhl" FLOAT DOUBLE
"mv_modnh" FLOAT DOUBLE
"mu_modnh" FLOAT DOUBLE
"mv_modnhl" FLOAT DOUBLE
"mu_modnhl" FLOAT DOUBLE
"mv_modn30m" FLOAT DOUBLE
"mu_modn30m" FLOAT DOUBLE
"mv_modn18t" FLOAT DOUBLE
"mu_modn18t" FLOAT DOUBLE
"mv_modpd30m" FLOAT DOUBLE
"mu_modpd30m" FLOAT DOUBLE
"mv_modp30m" FLOAT DOUBLE
"mu_modp30m" FLOAT DOUBLE
"mv_nmosw_2n" FLOAT DOUBLE
"mu_nmosw_2n" FLOAT DOUBLE
"mv_nmosw_3n" FLOAT DOUBLE
"mu_nmosw_3n" FLOAT DOUBLE
"mv_nmosw_4n" FLOAT DOUBLE
"mu_nmosw_4n" FLOAT DOUBLE
"mv_nmosmw_2n" FLOAT DOUBLE
"mu_nmosmw_2n" FLOAT DOUBLE
"mv_nmosmw_3n" FLOAT DOUBLE
"mu_nmosmw_3n" FLOAT DOUBLE
"mv_nmosmw_4n" FLOAT DOUBLE
"mu_nmosmw_4n" FLOAT DOUBLE
"mv_pmosw_2n" FLOAT DOUBLE
"mu_pmosw_2n" FLOAT DOUBLE
"mv_pmosw_3n" FLOAT DOUBLE
"mu_pmosw_3n" FLOAT DOUBLE
"mv_pmosw_4n" FLOAT DOUBLE
"mu_pmosw_4n" FLOAT DOUBLE
"mv_pmosmw_2n" FLOAT DOUBLE
"mu_pmosmw_2n" FLOAT DOUBLE
"mv_pmosmw_3n" FLOAT DOUBLE
"mu_pmosmw_3n" FLOAT DOUBLE
"mv_pmosmw_4n" FLOAT DOUBLE
"mu_pmosmw_4n" FLOAT DOUBLE
"mv_modnrf53" FLOAT DOUBLE
"mu_modnrf53" FLOAT DOUBLE
"mv_modprf53" FLOAT DOUBLE
"mu_modprf53" FLOAT DOUBLE
"TOPMET" FLOAT DOUBLE
"PHD_COATING" FLOAT DOUBLE
"PRIMLIB_WIP" FLOAT DOUBLE
"cmim" FLOAT DOUBLE
"cpmim" FLOAT DOUBLE
"cpmimc" FLOAT DOUBLE
"cpoly" FLOAT DOUBLE
"cpolyc" FLOAT DOUBLE
"cpolyrf" FLOAT DOUBLE
"cvar" FLOAT DOUBLE
"cvarm" FLOAT DOUBLE
"cvart" FLOAT DOUBLE
"moddpm" FLOAT DOUBLE
"esdfdn5" FLOAT DOUBLE
"esdfdp5" FLOAT DOUBLE
"esdgcn5" FLOAT DOUBLE
"esdgcp5" FLOAT DOUBLE
"esdmodn" FLOAT DOUBLE
"esdmodnm" FLOAT DOUBLE
"esdpd18" FLOAT DOUBLE
"esdpd26" FLOAT DOUBLE
"esdpd30" FLOAT DOUBLE
"esdmodp" FLOAT DOUBLE
"esmoddpm" FLOAT DOUBLE
"lat2" FLOAT DOUBLE
"modn18t" FLOAT DOUBLE
"modn30m" FLOAT DOUBLE
"modn" FLOAT DOUBLE
"modnh" FLOAT DOUBLE
"modnhl" FLOAT DOUBLE
"modnl" FLOAT DOUBLE
"modnm" FLOAT DOUBLE
"modnmh" FLOAT DOUBLE
"modnmhl" FLOAT DOUBLE
"modnml" FLOAT DOUBLE
"modnmw" FLOAT DOUBLE
"modnrf" FLOAT DOUBLE
"modnw" FLOAT DOUBLE
"nwd" FLOAT DOUBLE
"padvdd" FLOAT DOUBLE
"padvss" FLOAT DOUBLE
"pfuse" FLOAT DOUBLE
"phdnwa850" FLOAT DOUBLE
"phdnwb850" FLOAT DOUBLE
"modp30m" FLOAT DOUBLE
"modp" FLOAT DOUBLE
"modpd30m" FLOAT DOUBLE
"modpl" FLOAT DOUBLE
"modpm" FLOAT DOUBLE
"modpml" FLOAT DOUBLE
"modpmw" FLOAT DOUBLE
"modprf" FLOAT DOUBLE
"modpw" FLOAT DOUBLE
"rdiffn3" FLOAT DOUBLE
"rdiffp3" FLOAT DOUBLE
"rnwell" FLOAT DOUBLE
"rpoly1" FLOAT DOUBLE
"rpoly1c" FLOAT DOUBLE
"rpoly2" FLOAT DOUBLE
"rpoly2c" FLOAT DOUBLE
"rpoly2p" FLOAT DOUBLE
"rpoly2pc" FLOAT DOUBLE
"rpoly2ph" FLOAT DOUBLE
"rpoly2phc" FLOAT DOUBLE
"rpoly2rf" FLOAT DOUBLE
"rpolyh" FLOAT DOUBLE
"rpolyhc" FLOAT DOUBLE
"rpolyhrf" FLOAT DOUBLE
"rpolyz" FLOAT DOUBLE
"rpolyzc" FLOAT DOUBLE
"rpolyzrf" FLOAT DOUBLE
"sbd5" FLOAT DOUBLE
"subdiode" FLOAT DOUBLE
"vert10" FLOAT DOUBLE
"welldiode" FLOAT DOUBLE
"zd2sm24" FLOAT DOUBLE
"SP014S300C" FLOAT DOUBLE
"SP018S300C" FLOAT DOUBLE
"SP020S180C" FLOAT DOUBLE
"SP023S200C" FLOAT DOUBLE
"SP025C200C" FLOAT DOUBLE
"SP026S200C" FLOAT DOUBLE
"SP028C200C" FLOAT DOUBLE
"SP028S300C" FLOAT DOUBLE
"SP030C200C" FLOAT DOUBLE
"SP037S180C" FLOAT DOUBLE
"SP038S300C" FLOAT DOUBLE
"SP040C200C" FLOAT DOUBLE
"SP040C300C" FLOAT DOUBLE
"SP045C200C" FLOAT DOUBLE
"SP047S180C" FLOAT DOUBLE
"SP050S155C" FLOAT DOUBLE
"SP051C300C" FLOAT DOUBLE
"SP068C300C" FLOAT DOUBLE
"SP090C200C" FLOAT DOUBLE
"SP090S155C" FLOAT DOUBLE
"SP112C300C" FLOAT DOUBLE
"SP140C200C" FLOAT DOUBLE
"SP200C200C" FLOAT DOUBLE
"SY014C165C" FLOAT DOUBLE
"SY015C200C" FLOAT DOUBLE
"SY016C180C" FLOAT DOUBLE
"SY017C165C" FLOAT DOUBLE
"SY019C180C" FLOAT DOUBLE
"SY028C160C" FLOAT DOUBLE
"SP014S300D" FLOAT DOUBLE
"SP020S180D" FLOAT DOUBLE
"SP026S200D" FLOAT DOUBLE
"SP037S180D" FLOAT DOUBLE
"SP047S180D" FLOAT DOUBLE
"SP050S155D" FLOAT DOUBLE
"SP090S155D" FLOAT DOUBLE
"SP011S200T" FLOAT DOUBLE
"SP015S250T" FLOAT DOUBLE
"SP020S250T" FLOAT DOUBLE
"SP021S200T" FLOAT DOUBLE
"SP024S250T" FLOAT DOUBLE
"SP031S250T" FLOAT DOUBLE
"SP033S150T" FLOAT DOUBLE
"SP037S250T" FLOAT DOUBLE
"SP047S250T" FLOAT DOUBLE
"SP049S300T" FLOAT DOUBLE
"SP060S300T" FLOAT DOUBLE
"SP073S250T" FLOAT DOUBLE
"SP100S250T" FLOAT DOUBLE
"SP133S300T" FLOAT DOUBLE
"DI15PT" FLOAT DOUBLE
"DI20PT" FLOAT DOUBLE
"DI25PT" FLOAT DOUBLE
"DI30PT" FLOAT DOUBLE
"DI35PT" FLOAT DOUBLE
"DI40PT" FLOAT DOUBLE
"DI45PT" FLOAT DOUBLE
"DI50PT" FLOAT DOUBLE
"DI55PT" FLOAT DOUBLE
"DI60PT" FLOAT DOUBLE
) PROP(
"key" "parameters"
)
VALUE
"top-level" "top-level" (
2.700000000000000e+01
2.700000000000000e+01
2.700000000000000e+01
0.000000000000000e+00
2.700000000000000e+01
1.000000000000000e-09
1.000000000000000e-09
1.000000000000000e+03
3.300000000000000e+00
3.300000000000000e+00
3.300000000000000e+00
3.300000000000000e+00
1.000000000000000e-03
3.300000000000000e+00
0.000000000000000e+00
9.761364153102040e-04
2.489009841065854e-10
2.725163542516530e+17
2.575311081863038e+17
1.122724660566157e-01
1.324195472598526e+01
8.350132980272174e-04
2.527228559646755e-10
2.482394741062075e+17
2.222733321405942e+17
3.136395325643214e-01
1.361927363817586e+01
7.792490657903254e-04
2.142257468774915e-10
1.819166788607836e+17
2.026436399609297e+17
1.599663158577441e+00
1.186326328218446e+01
3.851871006675996e-03
2.096990775782615e-10
1.770663272190839e+17
1.378376352563619e+17
1.022551725916758e+00
1.336129476347341e+01
1.460412448388990e-03
3.527734967375174e-10
1.024605450788513e+17
8.380074662803339e+16
1.090104956657186e+00
1.094256447996167e+01
1.286448757544160e-03
2.987184604723006e-10
6.556291014065966e+16
6.446379778615678e+16
9.650802104595835e-01
9.732682301240704e+00
9.602186717772857e-04
2.573320044483990e-10
2.845277662120759e+17
-4.782369482197581e-08
9.228764617575971e-08
1.396357121180743e-03
2.849014936033636e-10
5.826853138998150e+16
9.365088928597090e+16
-5.633062597622992e-02
1.157653687587467e+01
1.410555111512542e-03
3.320721049141139e-10
1.216970960780978e+17
8.284264895602611e+16
-5.670181079730011e-01
1.012955158390772e+01
1.292360410952009e-03
3.418315788824111e-10
5.485068681135774e+16
-7.449921924866939e-08
3.929060648370299e-08
7.107735015451909e-05
4.034155177627690e-10
2.176582830086350e+17
2.241123019583523e+17
1.896630100168288e+03
9.889664070142899e-04
2.333561021368951e-10
1.735064445939846e+17
1.350692128448747e+17
1.988957806118764e+03
7.358477452769876e-05
4.488974668504670e-10
1.817027625404298e+17
2.252647562254220e+17
1.085465777602047e+03
7.724803679594770e-04
2.704464472481050e-10
1.944699758283794e+17
1.310696333805099e+17
8.742874733870849e+02
4.678352525001857e+00
5.172416209022514e+00
1.080009199332446e+00
6.488256231229753e-04
2.130804554326460e-10
3.024675920065493e-10
2.528040564763360e+17
2.397746570769697e+17
7.120657187069766e-03
4.500622701891698e+00
1.860661899983883e+00
7.886967271559406e-01
7.717056515347213e-04
2.601278579095379e-10
3.919346480220556e-10
2.318767589011229e+17
2.410439096819609e+17
9.994394887456671e-03
7.603528338442743e+03
2.174105821620859e-01
-4.652034700991446e-01
1.599605745822191e-08
4.522694274405110e+16
1.085718841693737e+17
6.526645720980596e-03
6.480838956082892e-02
3.534829561784863e-07
2.020906003367156e-10
4.125374460696242e-10
1.404110333120823e-03
3.792374975923449e-10
8.737598554387969e+03
1.526195458065718e-01
-4.527520766314911e-01
1.433082081563771e-08
5.386474464573618e+16
1.298137266014796e+17
6.216893775864411e-03
2.810779680637177e-02
3.924594116397202e-07
2.258763786813244e-10
3.713087876534089e-10
1.415558700653911e-03
3.137146255504340e-10
8.472153652778361e-04
2.767309125629254e-10
2.311281463041901e+17
2.175178270274720e+17
5.515721789328246e-01
6.772796004591510e-04
3.071880803909153e-10
1.958198184380308e+17
2.290721237482816e+17
5.998096627793270e-01
8.769079565971625e-04
2.023068561684340e-10
2.103032808041200e+17
2.109490431984035e+17
5.365123675154524e-01
9.873268986681943e-04
3.119323028950021e-10
1.831870391145348e+17
1.450678245207883e+17
1.058837011798337e+00
9.754019588339143e-04
3.003707173047588e-10
1.638003253426403e+17
1.472785501717248e+17
1.025760980132112e+00
6.542614627378061e-04
2.440890395082534e-10
1.671193572137505e+17
1.421710616625461e+17
9.649664603542309e-01
1.152571284826845e-03
4.096818619291298e-10
1.091319162911177e+17
9.758967322877979e+16
3.231847170303432e-01
1.456990880724043e-03
4.295963878859766e-10
1.084916409054771e+17
9.854918246514315e+16
3.503215389188656e-01
1.350226783193648e-03
4.034070066525600e-10
9.830882410550490e+16
9.437163939899120e+16
3.132907030255804e-01
1.220302500296384e-03
3.070312983589247e-10
6.551545696929098e+16
8.340133339277608e+16
5.685269776942574e-01
1.264165253788233e-03
4.190965828835033e-10
5.809643102083355e+16
8.187086581261613e+16
6.031532460641371e-01
1.039879228305072e-03
3.814217095263302e-10
6.051607846636325e+16
8.714404550927235e+16
5.214357724070547e-01
2.433343407565728e+17
2.389288042534143e+17
2.039436865882948e+17
1.671486345119774e+17
2.092329573895223e+04
-8.669073800021690e-02
1.572419235110516e+17
8.534730647768360e+17
1.330884372620285e-07
4.883506755018606e-08
7.771599577113986e-11
7.254682122677564e-11
8.324031762287021e-04
2.367619511205703e-10
7.680563216097653e+01
3.174503403011709e+00
6.967582562989714e-01
1.781735686153631e+01
2.459343281922117e+04
-5.839811033361592e-03
-1.139504405494127e+00
1.581830576395430e+17
9.339391638346016e-08
6.815479163274168e-08
5.849892450922169e-11
6.196943730469794e-11
8.511838128179312e-04
2.652080299519002e-10
6.882457441650331e+01
1.140901715658792e+00
1.255652499262994e+00
1.979986116539678e+01
2.944609469227539e+04
-5.283414289246499e-02
-9.736689263795270e-01
1.192310804677615e+17
1.002467877870165e+18
1.704664170429855e-07
5.423701803397387e-08
7.196317489329725e-11
7.238834771353752e-11
8.193651213929058e-04
2.799075988493860e-10
7.630477312952280e+01
4.098822379991785e+00
1.157137745550511e+00
1.717131459883383e+01
2.771335155614419e+04
-7.537944247828797e-03
-1.150736129013449e+00
1.415088471912220e+17
4.633258419022057e+17
2.040998207499087e-07
8.379185739636421e-08
6.622910759262741e-11
6.844837294351309e-11
7.836367342695594e-04
2.428116929717362e-10
8.008627355098724e+01
4.659083244851232e+00
1.254587756128450e+00
1.866106812042363e+01
1.159088359881192e+04
-2.059162559883902e-01
4.719266769180726e+16
-9.949758563444018e-08
3.372318727571517e-08
4.352487083261833e-11
4.520448929400184e-11
1.342735661509633e-03
3.660534773543477e-10
1.370480287214741e+02
1.777186748322100e+00
-2.848932262763286e-01
1.659863577714865e+01
1.441252010421455e+04
-2.661458355829492e-01
5.965878000754584e+16
-5.927013380900025e-08
2.422894035232253e-08
4.132336639050394e-11
4.832623258482665e-11
1.434925019016862e-03
3.917406743597239e-10
1.523999648960307e+02
3.931511492205225e+00
2.448406514907322e-01
1.594106668454194e+01
9.740931984833442e-04
2.451177235133946e-10
2.420955566838384e+17
-5.353112039574509e-08
9.304770341639284e-08
1.179239327855594e+04
-1.323578087445814e-01
-5.219445371258072e-01
9.243698399266227e+16
1.115381865796447e-07
8.102638439778238e-09
3.128947079164907e-11
2.917747905416414e-11
1.239482722213864e-03
3.179788851439953e-10
1.372658771090209e+02
3.735175379844009e+00
5.639525296939815e-01
1.563644077800665e+01
1.350137381764269e+04
-1.839778976609185e-01
1.280325950260228e+17
-3.766776308678091e-08
7.293079470396042e-09
3.409156695604324e-11
3.201416265502572e-11
1.338706669911742e-03
3.556903929989785e-10
1.187391308462247e+02
2.835445806089975e+00
-1.651552158908275e+00
1.963656636390248e+01
1.338914359978400e-03
2.948883801163174e-10
5.455340017601848e+16
-8.648526903524800e-08
3.532227423171037e-08
8.445849541574717e-05
5.971453249035403e-10
2.138718715183437e+17
2.092412224817090e+17
1.525905723457225e+03
9.097786326503847e-04
2.620235129725188e-10
1.426871538374573e+17
1.337081376181915e+17
1.722098765696399e+03
8.038234557956458e-05
3.908433939842507e-10
2.080117211401462e+17
1.798760642530396e+17
1.375578006070107e+03
9.803774924541358e-04
2.399652192834765e-10
2.000228190805763e+17
1.593687516095117e+17
6.210636036004871e+02
4.622650372721255e+00
5.585442065260373e+00
8.419907374114264e-01
7.242552231531591e-04
2.803327478468418e-10
2.924652182669379e-10
2.162429039867595e+17
1.824903724987060e+17
7.103568352535832e-03
3.888700990091079e+00
2.163151160515845e+00
7.702104775547050e-01
9.922725363448262e-04
2.420209056581371e-10
3.565476993247866e-10
1.801523660784587e+17
1.790666813978925e+17
1.103022446349077e-02
7.468353608474229e+03
9.868158489146457e-01
-4.675905484004738e-01
1.462603109236806e-08
5.200238634093665e+16
1.266670284060668e+17
8.147387674428989e-03
3.515463520901371e-02
2.492424895986915e-07
1.878820462327450e-10
3.807568547568284e-10
1.276924706211686e-03
3.508795018736273e-10
8.121097006484866e+03
1.133148699588347e+00
-4.477564322775789e-01
1.536601477675140e-08
6.443723360979837e+16
1.073230133296549e+17
6.834500717059057e-03
3.833304573918506e-02
4.058573126606643e-07
2.222245854035020e-10
3.655684166475199e-10
1.342148959767819e-03
3.436443618722260e-10
8.491156778493897e-04
3.111672209925019e-10
2.174189579829574e+17
2.159356268664411e+17
6.217560434965003e-01
9.876492356713862e-04
2.161030048737303e-10
2.237052043419331e+17
2.074549751779707e+17
5.322992531102787e-01
7.173533141773660e-04
2.945769559009932e-10
2.072262093979865e+17
2.113223444030579e+17
6.106670255165195e-01
7.089330468855333e-04
2.056712959310971e-10
1.667231409437955e+17
1.467468081863365e+17
1.018646841968912e+00
6.498665146389977e-04
2.014065559487790e-10
1.779436686601490e+17
1.476995498545755e+17