HEADER
"PSFversion" "1.00"
"Run Generator" "drlRun rev. 1.0"
"Run Time Stamp" "Apr 15 13:18:37 2026"
"date" "Apr 15 13:18:37 2026"
"simulator" "spectre"
"netlistDir" "../netlist"
"axlParamFlag" "true"
"#maeHistoryName" "MonteCarlo.5"
"#maeTestName" "MC"
 "externalSweepVariableCount" 1
TYPE
"runObject" STRUCT(
"logName" ARRAY( * ) STRING *
"parent" STRING *
"sweepVariable" ARRAY( * ) STRING *
) PROP( "key" "runObject" )
VALUE
"Root" "runObject" (
("")
""
("mcparamset")
)
"mcparamset=1.0" "runObject" (
(
"../../../1/MC/psf/logFile"
"../../../1/MC/psf/artistLogFile"
"../../../1/MC/psf/matlabLogFile"
)
"Root"
()
) PROP(
 "#maeDesignPoint" 1
"#maeCorner" "nom"
 "#pointID" 1
"netlistDir" "../../../1/MC/netlist"
"dataDir" "../../../1/MC"
 "mcparamset" 1.000000e+00
)

"mcparamset=2.0" "runObject" (
(
"../../../2/MC/psf/logFile"
"../../../2/MC/psf/artistLogFile"
"../../../2/MC/psf/matlabLogFile"
)
"Root"
()
) PROP(
 "#maeDesignPoint" 2
"#maeCorner" "nom"
 "#pointID" 2
"netlistDir" "../../../2/MC/netlist"
"dataDir" "../../../2/MC"
 "mcparamset" 2.000000e+00
)

"mcparamset=3.0" "runObject" (
(
"../../../3/MC/psf/logFile"
"../../../3/MC/psf/artistLogFile"
"../../../3/MC/psf/matlabLogFile"
)
"Root"
()
) PROP(
 "#maeDesignPoint" 3
"#maeCorner" "nom"
 "#pointID" 3
"netlistDir" "../../../3/MC/netlist"
"dataDir" "../../../3/MC"
 "mcparamset" 3.000000e+00
)

"mcparamset=4.0" "runObject" (
(
"../../../4/MC/psf/logFile"
"../../../4/MC/psf/artistLogFile"
"../../../4/MC/psf/matlabLogFile"
)
"Root"
()
) PROP(
 "#maeDesignPoint" 4
"#maeCorner" "nom"
 "#pointID" 4
"netlistDir" "../../../4/MC/netlist"
"dataDir" "../../../4/MC"
 "mcparamset" 4.000000e+00
)

"mcparamset=5.0" "runObject" (
(
"../../../5/MC/psf/logFile"
"../../../5/MC/psf/artistLogFile"
"../../../5/MC/psf/matlabLogFile"
)
"Root"
()
) PROP(
 "#maeDesignPoint" 5
"#maeCorner" "nom"
 "#pointID" 5
"netlistDir" "../../../5/MC/netlist"
"dataDir" "../../../5/MC"
 "mcparamset" 5.000000e+00
)

"mcparamset=6.0" "runObject" (
(
"../../../6/MC/psf/logFile"
"../../../6/MC/psf/artistLogFile"
"../../../6/MC/psf/matlabLogFile"
)
"Root"
()
) PROP(
 "#maeDesignPoint" 6
"#maeCorner" "nom"
 "#pointID" 6
"netlistDir" "../../../6/MC/netlist"
"dataDir" "../../../6/MC"
 "mcparamset" 6.000000e+00
)

"mcparamset=7.0" "runObject" (
(
"../../../7/MC/psf/logFile"
"../../../7/MC/psf/artistLogFile"
"../../../7/MC/psf/matlabLogFile"
)
"Root"
()
) PROP(
 "#maeDesignPoint" 7
"#maeCorner" "nom"
 "#pointID" 7
"netlistDir" "../../../7/MC/netlist"
"dataDir" "../../../7/MC"
 "mcparamset" 7.000000e+00
)

"mcparamset=8.0" "runObject" (
(
"../../../8/MC/psf/logFile"
"../../../8/MC/psf/artistLogFile"
"../../../8/MC/psf/matlabLogFile"
)
"Root"
()
) PROP(
 "#maeDesignPoint" 8
"#maeCorner" "nom"
 "#pointID" 8
"netlistDir" "../../../8/MC/netlist"
"dataDir" "../../../8/MC"
 "mcparamset" 8.000000e+00
)

"mcparamset=9.0" "runObject" (
(
"../../../9/MC/psf/logFile"
"../../../9/MC/psf/artistLogFile"
"../../../9/MC/psf/matlabLogFile"
)
"Root"
()
) PROP(
 "#maeDesignPoint" 9
"#maeCorner" "nom"
 "#pointID" 9
"netlistDir" "../../../9/MC/netlist"
"dataDir" "../../../9/MC"
 "mcparamset" 9.000000e+00
)

"mcparamset=10.0" "runObject" (
(
"../../../10/MC/psf/logFile"
"../../../10/MC/psf/artistLogFile"
"../../../10/MC/psf/matlabLogFile"
)
"Root"
()
) PROP(
 "#maeDesignPoint" 10
"#maeCorner" "nom"
 "#pointID" 10
"netlistDir" "../../../10/MC/netlist"
"dataDir" "../../../10/MC"
 "mcparamset" 1.000000e+01
)

"mcparamset=11.0" "runObject" (
(
"../../../11/MC/psf/logFile"
"../../../11/MC/psf/artistLogFile"
"../../../11/MC/psf/matlabLogFile"
)
"Root"
()
) PROP(
 "#maeDesignPoint" 11
"#maeCorner" "nom"
 "#pointID" 11
"netlistDir" "../../../11/MC/netlist"
"dataDir" "../../../11/MC"
 "mcparamset" 1.100000e+01
)

"mcparamset=12.0" "runObject" (
(
"../../../12/MC/psf/logFile"
"../../../12/MC/psf/artistLogFile"
"../../../12/MC/psf/matlabLogFile"
)
"Root"
()
) PROP(
 "#maeDesignPoint" 12
"#maeCorner" "nom"
 "#pointID" 12
"netlistDir" "../../../12/MC/netlist"
"dataDir" "../../../12/MC"
 "mcparamset" 1.200000e+01
)

"mcparamset=13.0" "runObject" (
(
"../../../13/MC/psf/logFile"
"../../../13/MC/psf/artistLogFile"
"../../../13/MC/psf/matlabLogFile"
)
"Root"
()
) PROP(
 "#maeDesignPoint" 13
"#maeCorner" "nom"
 "#pointID" 13
"netlistDir" "../../../13/MC/netlist"
"dataDir" "../../../13/MC"
 "mcparamset" 1.300000e+01
)

"mcparamset=14.0" "runObject" (
(
"../../../14/MC/psf/logFile"
"../../../14/MC/psf/artistLogFile"
"../../../14/MC/psf/matlabLogFile"
)
"Root"
()
) PROP(
 "#maeDesignPoint" 14
"#maeCorner" "nom"
 "#pointID" 14
"netlistDir" "../../../14/MC/netlist"
"dataDir" "../../../14/MC"
 "mcparamset" 1.400000e+01
)

"mcparamset=15.0" "runObject" (
(
"../../../15/MC/psf/logFile"
"../../../15/MC/psf/artistLogFile"
"../../../15/MC/psf/matlabLogFile"
)
"Root"
()
) PROP(
 "#maeDesignPoint" 15
"#maeCorner" "nom"
 "#pointID" 15
"netlistDir" "../../../15/MC/netlist"
"dataDir" "../../../15/MC"
 "mcparamset" 1.500000e+01
)

"mcparamset=16.0" "runObject" (
(
"../../../16/MC/psf/logFile"
"../../../16/MC/psf/artistLogFile"
"../../../16/MC/psf/matlabLogFile"
)
"Root"
()
) PROP(
 "#maeDesignPoint" 16
"#maeCorner" "nom"
 "#pointID" 16
"netlistDir" "../../../16/MC/netlist"
"dataDir" "../../../16/MC"
 "mcparamset" 1.600000e+01
)

"mcparamset=17.0" "runObject" (
(
"../../../17/MC/psf/logFile"
"../../../17/MC/psf/artistLogFile"
"../../../17/MC/psf/matlabLogFile"
)
"Root"
()
) PROP(
 "#maeDesignPoint" 17
"#maeCorner" "nom"
 "#pointID" 17
"netlistDir" "../../../17/MC/netlist"
"dataDir" "../../../17/MC"
 "mcparamset" 1.700000e+01
)

"mcparamset=18.0" "runObject" (
(
"../../../18/MC/psf/logFile"
"../../../18/MC/psf/artistLogFile"
"../../../18/MC/psf/matlabLogFile"
)
"Root"
()
) PROP(
 "#maeDesignPoint" 18
"#maeCorner" "nom"
 "#pointID" 18
"netlistDir" "../../../18/MC/netlist"
"dataDir" "../../../18/MC"
 "mcparamset" 1.800000e+01
)

"mcparamset=19.0" "runObject" (
(
"../../../19/MC/psf/logFile"
"../../../19/MC/psf/artistLogFile"
"../../../19/MC/psf/matlabLogFile"
)
"Root"
()
) PROP(
 "#maeDesignPoint" 19
"#maeCorner" "nom"
 "#pointID" 19
"netlistDir" "../../../19/MC/netlist"
"dataDir" "../../../19/MC"
 "mcparamset" 1.900000e+01
)

"mcparamset=20.0" "runObject" (
(
"../../../20/MC/psf/logFile"
"../../../20/MC/psf/artistLogFile"
"../../../20/MC/psf/matlabLogFile"
)
"Root"
()
) PROP(
 "#maeDesignPoint" 20
"#maeCorner" "nom"
 "#pointID" 20
"netlistDir" "../../../20/MC/netlist"
"dataDir" "../../../20/MC"
 "mcparamset" 2.000000e+01
)

"mcparamset=21.0" "runObject" (
(
"../../../21/MC/psf/logFile"
"../../../21/MC/psf/artistLogFile"
"../../../21/MC/psf/matlabLogFile"
)
"Root"
()
) PROP(
 "#maeDesignPoint" 21
"#maeCorner" "nom"
 "#pointID" 21
"netlistDir" "../../../21/MC/netlist"
"dataDir" "../../../21/MC"
 "mcparamset" 2.100000e+01
)

"mcparamset=22.0" "runObject" (
(
"../../../22/MC/psf/logFile"
"../../../22/MC/psf/artistLogFile"
"../../../22/MC/psf/matlabLogFile"
)
"Root"
()
) PROP(
 "#maeDesignPoint" 22
"#maeCorner" "nom"
 "#pointID" 22
"netlistDir" "../../../22/MC/netlist"
"dataDir" "../../../22/MC"
 "mcparamset" 2.200000e+01
)

"mcparamset=23.0" "runObject" (
(
"../../../23/MC/psf/logFile"
"../../../23/MC/psf/artistLogFile"
"../../../23/MC/psf/matlabLogFile"
)
"Root"
()
) PROP(
 "#maeDesignPoint" 23
"#maeCorner" "nom"
 "#pointID" 23
"netlistDir" "../../../23/MC/netlist"
"dataDir" "../../../23/MC"
 "mcparamset" 2.300000e+01
)

"mcparamset=24.0" "runObject" (
(
"../../../24/MC/psf/logFile"
"../../../24/MC/psf/artistLogFile"
"../../../24/MC/psf/matlabLogFile"
)
"Root"
()
) PROP(
 "#maeDesignPoint" 24
"#maeCorner" "nom"
 "#pointID" 24
"netlistDir" "../../../24/MC/netlist"
"dataDir" "../../../24/MC"
 "mcparamset" 2.400000e+01
)

"mcparamset=25.0" "runObject" (
(
"../../../25/MC/psf/logFile"
"../../../25/MC/psf/artistLogFile"
"../../../25/MC/psf/matlabLogFile"
)
"Root"
()
) PROP(
 "#maeDesignPoint" 25
"#maeCorner" "nom"
 "#pointID" 25
"netlistDir" "../../../25/MC/netlist"
"dataDir" "../../../25/MC"
 "mcparamset" 2.500000e+01
)

"mcparamset=26.0" "runObject" (
(
"../../../26/MC/psf/logFile"
"../../../26/MC/psf/artistLogFile"
"../../../26/MC/psf/matlabLogFile"
)
"Root"
()
) PROP(
 "#maeDesignPoint" 26
"#maeCorner" "nom"
 "#pointID" 26
"netlistDir" "../../../26/MC/netlist"
"dataDir" "../../../26/MC"
 "mcparamset" 2.600000e+01
)

"mcparamset=27.0" "runObject" (
(
"../../../27/MC/psf/logFile"
"../../../27/MC/psf/artistLogFile"
"../../../27/MC/psf/matlabLogFile"
)
"Root"
()
) PROP(
 "#maeDesignPoint" 27
"#maeCorner" "nom"
 "#pointID" 27
"netlistDir" "../../../27/MC/netlist"
"dataDir" "../../../27/MC"
 "mcparamset" 2.700000e+01
)

"mcparamset=28.0" "runObject" (
(
"../../../28/MC/psf/logFile"
"../../../28/MC/psf/artistLogFile"
"../../../28/MC/psf/matlabLogFile"
)
"Root"
()
) PROP(
 "#maeDesignPoint" 28
"#maeCorner" "nom"
 "#pointID" 28
"netlistDir" "../../../28/MC/netlist"
"dataDir" "../../../28/MC"
 "mcparamset" 2.800000e+01
)

"mcparamset=29.0" "runObject" (
(
"../../../29/MC/psf/logFile"
"../../../29/MC/psf/artistLogFile"
"../../../29/MC/psf/matlabLogFile"
)
"Root"
()
) PROP(
 "#maeDesignPoint" 29
"#maeCorner" "nom"
 "#pointID" 29
"netlistDir" "../../../29/MC/netlist"
"dataDir" "../../../29/MC"
 "mcparamset" 2.900000e+01
)

"mcparamset=30.0" "runObject" (
(
"../../../30/MC/psf/logFile"
"../../../30/MC/psf/artistLogFile"
"../../../30/MC/psf/matlabLogFile"
)
"Root"
()
) PROP(
 "#maeDesignPoint" 30
"#maeCorner" "nom"
 "#pointID" 30
"netlistDir" "../../../30/MC/netlist"
"dataDir" "../../../30/MC"
 "mcparamset" 3.000000e+01
)

"mcparamset=31.0" "runObject" (
(
"../../../31/MC/psf/logFile"
"../../../31/MC/psf/artistLogFile"
"../../../31/MC/psf/matlabLogFile"
)
"Root"
()
) PROP(
 "#maeDesignPoint" 31
"#maeCorner" "nom"
 "#pointID" 31
"netlistDir" "../../../31/MC/netlist"
"dataDir" "../../../31/MC"
 "mcparamset" 3.100000e+01
)

"mcparamset=32.0" "runObject" (
(
"../../../32/MC/psf/logFile"
"../../../32/MC/psf/artistLogFile"
"../../../32/MC/psf/matlabLogFile"
)
"Root"
()
) PROP(
 "#maeDesignPoint" 32
"#maeCorner" "nom"
 "#pointID" 32
"netlistDir" "../../../32/MC/netlist"
"dataDir" "../../../32/MC"
 "mcparamset" 3.200000e+01
)

"mcparamset=33.0" "runObject" (
(
"../../../33/MC/psf/logFile"
"../../../33/MC/psf/artistLogFile"
"../../../33/MC/psf/matlabLogFile"
)
"Root"
()
) PROP(
 "#maeDesignPoint" 33
"#maeCorner" "nom"
 "#pointID" 33
"netlistDir" "../../../33/MC/netlist"
"dataDir" "../../../33/MC"
 "mcparamset" 3.300000e+01
)

"mcparamset=34.0" "runObject" (
(
"../../../34/MC/psf/logFile"
"../../../34/MC/psf/artistLogFile"
"../../../34/MC/psf/matlabLogFile"
)
"Root"
()
) PROP(
 "#maeDesignPoint" 34
"#maeCorner" "nom"
 "#pointID" 34
"netlistDir" "../../../34/MC/netlist"
"dataDir" "../../../34/MC"
 "mcparamset" 3.400000e+01
)

"mcparamset=35.0" "runObject" (
(
"../../../35/MC/psf/logFile"
"../../../35/MC/psf/artistLogFile"
"../../../35/MC/psf/matlabLogFile"
)
"Root"
()
) PROP(
 "#maeDesignPoint" 35
"#maeCorner" "nom"
 "#pointID" 35
"netlistDir" "../../../35/MC/netlist"
"dataDir" "../../../35/MC"
 "mcparamset" 3.500000e+01
)

"mcparamset=36.0" "runObject" (
(
"../../../36/MC/psf/logFile"
"../../../36/MC/psf/artistLogFile"
"../../../36/MC/psf/matlabLogFile"
)
"Root"
()
) PROP(
 "#maeDesignPoint" 36
"#maeCorner" "nom"
 "#pointID" 36
"netlistDir" "../../../36/MC/netlist"
"dataDir" "../../../36/MC"
 "mcparamset" 3.600000e+01
)

"mcparamset=37.0" "runObject" (
(
"../../../37/MC/psf/logFile"
"../../../37/MC/psf/artistLogFile"
"../../../37/MC/psf/matlabLogFile"
)
"Root"
()
) PROP(
 "#maeDesignPoint" 37
"#maeCorner" "nom"
 "#pointID" 37
"netlistDir" "../../../37/MC/netlist"
"dataDir" "../../../37/MC"
 "mcparamset" 3.700000e+01
)

"mcparamset=38.0" "runObject" (
(
"../../../38/MC/psf/logFile"
"../../../38/MC/psf/artistLogFile"
"../../../38/MC/psf/matlabLogFile"
)
"Root"
()
) PROP(
 "#maeDesignPoint" 38
"#maeCorner" "nom"
 "#pointID" 38
"netlistDir" "../../../38/MC/netlist"
"dataDir" "../../../38/MC"
 "mcparamset" 3.800000e+01
)

"mcparamset=39.0" "runObject" (
(
"../../../39/MC/psf/logFile"
"../../../39/MC/psf/artistLogFile"
"../../../39/MC/psf/matlabLogFile"
)
"Root"
()
) PROP(
 "#maeDesignPoint" 39
"#maeCorner" "nom"
 "#pointID" 39
"netlistDir" "../../../39/MC/netlist"
"dataDir" "../../../39/MC"
 "mcparamset" 3.900000e+01
)

"mcparamset=40.0" "runObject" (
(
"../../../40/MC/psf/logFile"
"../../../40/MC/psf/artistLogFile"
"../../../40/MC/psf/matlabLogFile"
)
"Root"
()
) PROP(
 "#maeDesignPoint" 40
"#maeCorner" "nom"
 "#pointID" 40
"netlistDir" "../../../40/MC/netlist"
"dataDir" "../../../40/MC"
 "mcparamset" 4.000000e+01
)

"mcparamset=41.0" "runObject" (
(
"../../../41/MC/psf/logFile"
"../../../41/MC/psf/artistLogFile"
"../../../41/MC/psf/matlabLogFile"
)
"Root"
()
) PROP(
 "#maeDesignPoint" 41
"#maeCorner" "nom"
 "#pointID" 41
"netlistDir" "../../../41/MC/netlist"
"dataDir" "../../../41/MC"
 "mcparamset" 4.100000e+01
)

"mcparamset=42.0" "runObject" (
(
"../../../42/MC/psf/logFile"
"../../../42/MC/psf/artistLogFile"
"../../../42/MC/psf/matlabLogFile"
)
"Root"
()
) PROP(
 "#maeDesignPoint" 42
"#maeCorner" "nom"
 "#pointID" 42
"netlistDir" "../../../42/MC/netlist"
"dataDir" "../../../42/MC"
 "mcparamset" 4.200000e+01
)

"mcparamset=43.0" "runObject" (
(
"../../../43/MC/psf/logFile"
"../../../43/MC/psf/artistLogFile"
"../../../43/MC/psf/matlabLogFile"
)
"Root"
()
) PROP(
 "#maeDesignPoint" 43
"#maeCorner" "nom"
 "#pointID" 43
"netlistDir" "../../../43/MC/netlist"
"dataDir" "../../../43/MC"
 "mcparamset" 4.300000e+01
)

"mcparamset=44.0" "runObject" (
(
"../../../44/MC/psf/logFile"
"../../../44/MC/psf/artistLogFile"
"../../../44/MC/psf/matlabLogFile"
)
"Root"
()
) PROP(
 "#maeDesignPoint" 44
"#maeCorner" "nom"
 "#pointID" 44
"netlistDir" "../../../44/MC/netlist"
"dataDir" "../../../44/MC"
 "mcparamset" 4.400000e+01
)

"mcparamset=45.0" "runObject" (
(
"../../../45/MC/psf/logFile"
"../../../45/MC/psf/artistLogFile"
"../../../45/MC/psf/matlabLogFile"
)
"Root"
()
) PROP(
 "#maeDesignPoint" 45
"#maeCorner" "nom"
 "#pointID" 45
"netlistDir" "../../../45/MC/netlist"
"dataDir" "../../../45/MC"
 "mcparamset" 4.500000e+01
)

"mcparamset=46.0" "runObject" (
(
"../../../46/MC/psf/logFile"
"../../../46/MC/psf/artistLogFile"
"../../../46/MC/psf/matlabLogFile"
)
"Root"
()
) PROP(
 "#maeDesignPoint" 46
"#maeCorner" "nom"
 "#pointID" 46
"netlistDir" "../../../46/MC/netlist"
"dataDir" "../../../46/MC"
 "mcparamset" 4.600000e+01
)

"mcparamset=47.0" "runObject" (
(
"../../../47/MC/psf/logFile"
"../../../47/MC/psf/artistLogFile"
"../../../47/MC/psf/matlabLogFile"
)
"Root"
()
) PROP(
 "#maeDesignPoint" 47
"#maeCorner" "nom"
 "#pointID" 47
"netlistDir" "../../../47/MC/netlist"
"dataDir" "../../../47/MC"
 "mcparamset" 4.700000e+01
)

"mcparamset=48.0" "runObject" (
(
"../../../48/MC/psf/logFile"
"../../../48/MC/psf/artistLogFile"
"../../../48/MC/psf/matlabLogFile"
)
"Root"
()
) PROP(
 "#maeDesignPoint" 48
"#maeCorner" "nom"
 "#pointID" 48
"netlistDir" "../../../48/MC/netlist"
"dataDir" "../../../48/MC"
 "mcparamset" 4.800000e+01
)

"mcparamset=49.0" "runObject" (
(
"../../../49/MC/psf/logFile"
"../../../49/MC/psf/artistLogFile"
"../../../49/MC/psf/matlabLogFile"
)
"Root"
()
) PROP(
 "#maeDesignPoint" 49
"#maeCorner" "nom"
 "#pointID" 49
"netlistDir" "../../../49/MC/netlist"
"dataDir" "../../../49/MC"
 "mcparamset" 4.900000e+01
)

"mcparamset=50.0" "runObject" (
(
"../../../50/MC/psf/logFile"
"../../../50/MC/psf/artistLogFile"
"../../../50/MC/psf/matlabLogFile"
)
"Root"
()
) PROP(
 "#maeDesignPoint" 50
"#maeCorner" "nom"
 "#pointID" 50
"netlistDir" "../../../50/MC/netlist"
"dataDir" "../../../50/MC"
 "mcparamset" 5.000000e+01
)

"mcparamset=51.0" "runObject" (
(
"../../../51/MC/psf/logFile"
"../../../51/MC/psf/artistLogFile"
"../../../51/MC/psf/matlabLogFile"
)
"Root"
()
) PROP(
 "#maeDesignPoint" 51
"#maeCorner" "nom"
 "#pointID" 51
"netlistDir" "../../../51/MC/netlist"
"dataDir" "../../../51/MC"
 "mcparamset" 5.100000e+01
)

"mcparamset=52.0" "runObject" (
(
"../../../52/MC/psf/logFile"
"../../../52/MC/psf/artistLogFile"
"../../../52/MC/psf/matlabLogFile"
)
"Root"
()
) PROP(
 "#maeDesignPoint" 52
"#maeCorner" "nom"
 "#pointID" 52
"netlistDir" "../../../52/MC/netlist"
"dataDir" "../../../52/MC"
 "mcparamset" 5.200000e+01
)

"mcparamset=53.0" "runObject" (
(
"../../../53/MC/psf/logFile"
"../../../53/MC/psf/artistLogFile"
"../../../53/MC/psf/matlabLogFile"
)
"Root"
()
) PROP(
 "#maeDesignPoint" 53
"#maeCorner" "nom"
 "#pointID" 53
"netlistDir" "../../../53/MC/netlist"
"dataDir" "../../../53/MC"
 "mcparamset" 5.300000e+01
)

"mcparamset=54.0" "runObject" (
(
"../../../54/MC/psf/logFile"
"../../../54/MC/psf/artistLogFile"
"../../../54/MC/psf/matlabLogFile"
)
"Root"
()
) PROP(
 "#maeDesignPoint" 54
"#maeCorner" "nom"
 "#pointID" 54
"netlistDir" "../../../54/MC/netlist"
"dataDir" "../../../54/MC"
 "mcparamset" 5.400000e+01
)

"mcparamset=55.0" "runObject" (
(
"../../../55/MC/psf/logFile"
"../../../55/MC/psf/artistLogFile"
"../../../55/MC/psf/matlabLogFile"
)
"Root"
()
) PROP(
 "#maeDesignPoint" 55
"#maeCorner" "nom"
 "#pointID" 55
"netlistDir" "../../../55/MC/netlist"
"dataDir" "../../../55/MC"
 "mcparamset" 5.500000e+01
)

"mcparamset=56.0" "runObject" (
(
"../../../56/MC/psf/logFile"
"../../../56/MC/psf/artistLogFile"
"../../../56/MC/psf/matlabLogFile"
)
"Root"
()
) PROP(
 "#maeDesignPoint" 56
"#maeCorner" "nom"
 "#pointID" 56
"netlistDir" "../../../56/MC/netlist"
"dataDir" "../../../56/MC"
 "mcparamset" 5.600000e+01
)

"mcparamset=57.0" "runObject" (
(
"../../../57/MC/psf/logFile"
"../../../57/MC/psf/artistLogFile"
"../../../57/MC/psf/matlabLogFile"
)
"Root"
()
) PROP(
 "#maeDesignPoint" 57
"#maeCorner" "nom"
 "#pointID" 57
"netlistDir" "../../../57/MC/netlist"
"dataDir" "../../../57/MC"
 "mcparamset" 5.700000e+01
)

"mcparamset=58.0" "runObject" (
(
"../../../58/MC/psf/logFile"
"../../../58/MC/psf/artistLogFile"
"../../../58/MC/psf/matlabLogFile"
)
"Root"
()
) PROP(
 "#maeDesignPoint" 58
"#maeCorner" "nom"
 "#pointID" 58
"netlistDir" "../../../58/MC/netlist"
"dataDir" "../../../58/MC"
 "mcparamset" 5.800000e+01
)

"mcparamset=59.0" "runObject" (
(
"../../../59/MC/psf/logFile"
"../../../59/MC/psf/artistLogFile"
"../../../59/MC/psf/matlabLogFile"
)
"Root"
()
) PROP(
 "#maeDesignPoint" 59
"#maeCorner" "nom"
 "#pointID" 59
"netlistDir" "../../../59/MC/netlist"
"dataDir" "../../../59/MC"
 "mcparamset" 5.900000e+01
)

"mcparamset=60.0" "runObject" (
(
"../../../60/MC/psf/logFile"
"../../../60/MC/psf/artistLogFile"
"../../../60/MC/psf/matlabLogFile"
)
"Root"
()
) PROP(
 "#maeDesignPoint" 60
"#maeCorner" "nom"
 "#pointID" 60
"netlistDir" "../../../60/MC/netlist"
"dataDir" "../../../60/MC"
 "mcparamset" 6.000000e+01
)

"mcparamset=61.0" "runObject" (
(
"../../../61/MC/psf/logFile"
"../../../61/MC/psf/artistLogFile"
"../../../61/MC/psf/matlabLogFile"
)
"Root"
()
) PROP(
 "#maeDesignPoint" 61
"#maeCorner" "nom"
 "#pointID" 61
"netlistDir" "../../../61/MC/netlist"
"dataDir" "../../../61/MC"
 "mcparamset" 6.100000e+01
)

"mcparamset=62.0" "runObject" (
(
"../../../62/MC/psf/logFile"
"../../../62/MC/psf/artistLogFile"
"../../../62/MC/psf/matlabLogFile"
)
"Root"
()
) PROP(
 "#maeDesignPoint" 62
"#maeCorner" "nom"
 "#pointID" 62
"netlistDir" "../../../62/MC/netlist"
"dataDir" "../../../62/MC"
 "mcparamset" 6.200000e+01
)

"mcparamset=63.0" "runObject" (
(
"../../../63/MC/psf/logFile"
"../../../63/MC/psf/artistLogFile"
"../../../63/MC/psf/matlabLogFile"
)
"Root"
()
) PROP(
 "#maeDesignPoint" 63
"#maeCorner" "nom"
 "#pointID" 63
"netlistDir" "../../../63/MC/netlist"
"dataDir" "../../../63/MC"
 "mcparamset" 6.300000e+01
)

"mcparamset=64.0" "runObject" (
(
"../../../64/MC/psf/logFile"
"../../../64/MC/psf/artistLogFile"
"../../../64/MC/psf/matlabLogFile"
)
"Root"
()
) PROP(
 "#maeDesignPoint" 64
"#maeCorner" "nom"
 "#pointID" 64
"netlistDir" "../../../64/MC/netlist"
"dataDir" "../../../64/MC"
 "mcparamset" 6.400000e+01
)

"mcparamset=65.0" "runObject" (
(
"../../../65/MC/psf/logFile"
"../../../65/MC/psf/artistLogFile"
"../../../65/MC/psf/matlabLogFile"
)
"Root"
()
) PROP(
 "#maeDesignPoint" 65
"#maeCorner" "nom"
 "#pointID" 65
"netlistDir" "../../../65/MC/netlist"
"dataDir" "../../../65/MC"
 "mcparamset" 6.500000e+01
)

"mcparamset=66.0" "runObject" (
(
"../../../66/MC/psf/logFile"
"../../../66/MC/psf/artistLogFile"
"../../../66/MC/psf/matlabLogFile"
)
"Root"
()
) PROP(
 "#maeDesignPoint" 66
"#maeCorner" "nom"
 "#pointID" 66
"netlistDir" "../../../66/MC/netlist"
"dataDir" "../../../66/MC"
 "mcparamset" 6.600000e+01
)

"mcparamset=67.0" "runObject" (
(
"../../../67/MC/psf/logFile"
"../../../67/MC/psf/artistLogFile"
"../../../67/MC/psf/matlabLogFile"
)
"Root"
()
) PROP(
 "#maeDesignPoint" 67
"#maeCorner" "nom"
 "#pointID" 67
"netlistDir" "../../../67/MC/netlist"
"dataDir" "../../../67/MC"
 "mcparamset" 6.700000e+01
)

"mcparamset=68.0" "runObject" (
(
"../../../68/MC/psf/logFile"
"../../../68/MC/psf/artistLogFile"
"../../../68/MC/psf/matlabLogFile"
)
"Root"
()
) PROP(
 "#maeDesignPoint" 68
"#maeCorner" "nom"
 "#pointID" 68
"netlistDir" "../../../68/MC/netlist"
"dataDir" "../../../68/MC"
 "mcparamset" 6.800000e+01
)

"mcparamset=69.0" "runObject" (
(
"../../../69/MC/psf/logFile"
"../../../69/MC/psf/artistLogFile"
"../../../69/MC/psf/matlabLogFile"
)
"Root"
()
) PROP(
 "#maeDesignPoint" 69
"#maeCorner" "nom"
 "#pointID" 69
"netlistDir" "../../../69/MC/netlist"
"dataDir" "../../../69/MC"
 "mcparamset" 6.900000e+01
)

"mcparamset=70.0" "runObject" (
(
"../../../70/MC/psf/logFile"
"../../../70/MC/psf/artistLogFile"
"../../../70/MC/psf/matlabLogFile"
)
"Root"
()
) PROP(
 "#maeDesignPoint" 70
"#maeCorner" "nom"
 "#pointID" 70
"netlistDir" "../../../70/MC/netlist"
"dataDir" "../../../70/MC"
 "mcparamset" 7.000000e+01
)

"mcparamset=71.0" "runObject" (
(
"../../../71/MC/psf/logFile"
"../../../71/MC/psf/artistLogFile"
"../../../71/MC/psf/matlabLogFile"
)
"Root"
()
) PROP(
 "#maeDesignPoint" 71
"#maeCorner" "nom"
 "#pointID" 71
"netlistDir" "../../../71/MC/netlist"
"dataDir" "../../../71/MC"
 "mcparamset" 7.100000e+01
)

"mcparamset=72.0" "runObject" (
(
"../../../72/MC/psf/logFile"
"../../../72/MC/psf/artistLogFile"
"../../../72/MC/psf/matlabLogFile"
)
"Root"
()
) PROP(
 "#maeDesignPoint" 72
"#maeCorner" "nom"
 "#pointID" 72
"netlistDir" "../../../72/MC/netlist"
"dataDir" "../../../72/MC"
 "mcparamset" 7.200000e+01
)

"mcparamset=73.0" "runObject" (
(
"../../../73/MC/psf/logFile"
"../../../73/MC/psf/artistLogFile"
"../../../73/MC/psf/matlabLogFile"
)
"Root"
()
) PROP(
 "#maeDesignPoint" 73
"#maeCorner" "nom"
 "#pointID" 73
"netlistDir" "../../../73/MC/netlist"
"dataDir" "../../../73/MC"
 "mcparamset" 7.300000e+01
)

"mcparamset=74.0" "runObject" (
(
"../../../74/MC/psf/logFile"
"../../../74/MC/psf/artistLogFile"
"../../../74/MC/psf/matlabLogFile"
)
"Root"
()
) PROP(
 "#maeDesignPoint" 74
"#maeCorner" "nom"
 "#pointID" 74
"netlistDir" "../../../74/MC/netlist"
"dataDir" "../../../74/MC"
 "mcparamset" 7.400000e+01
)

"mcparamset=75.0" "runObject" (
(
"../../../75/MC/psf/logFile"
"../../../75/MC/psf/artistLogFile"
"../../../75/MC/psf/matlabLogFile"
)
"Root"
()
) PROP(
 "#maeDesignPoint" 75
"#maeCorner" "nom"
 "#pointID" 75
"netlistDir" "../../../75/MC/netlist"
"dataDir" "../../../75/MC"
 "mcparamset" 7.500000e+01
)

"mcparamset=76.0" "runObject" (
(
"../../../76/MC/psf/logFile"
"../../../76/MC/psf/artistLogFile"
"../../../76/MC/psf/matlabLogFile"
)
"Root"
()
) PROP(
 "#maeDesignPoint" 76
"#maeCorner" "nom"
 "#pointID" 76
"netlistDir" "../../../76/MC/netlist"
"dataDir" "../../../76/MC"
 "mcparamset" 7.600000e+01
)

"mcparamset=77.0" "runObject" (
(
"../../../77/MC/psf/logFile"
"../../../77/MC/psf/artistLogFile"
"../../../77/MC/psf/matlabLogFile"
)
"Root"
()
) PROP(
 "#maeDesignPoint" 77
"#maeCorner" "nom"
 "#pointID" 77
"netlistDir" "../../../77/MC/netlist"
"dataDir" "../../../77/MC"
 "mcparamset" 7.700000e+01
)

"mcparamset=78.0" "runObject" (
(
"../../../78/MC/psf/logFile"
"../../../78/MC/psf/artistLogFile"
"../../../78/MC/psf/matlabLogFile"
)
"Root"
()
) PROP(
 "#maeDesignPoint" 78
"#maeCorner" "nom"
 "#pointID" 78
"netlistDir" "../../../78/MC/netlist"
"dataDir" "../../../78/MC"
 "mcparamset" 7.800000e+01
)

"mcparamset=79.0" "runObject" (
(
"../../../79/MC/psf/logFile"
"../../../79/MC/psf/artistLogFile"
"../../../79/MC/psf/matlabLogFile"
)
"Root"
()
) PROP(
 "#maeDesignPoint" 79
"#maeCorner" "nom"
 "#pointID" 79
"netlistDir" "../../../79/MC/netlist"
"dataDir" "../../../79/MC"
 "mcparamset" 7.900000e+01
)

"mcparamset=80.0" "runObject" (
(
"../../../80/MC/psf/logFile"
"../../../80/MC/psf/artistLogFile"
"../../../80/MC/psf/matlabLogFile"
)
"Root"
()
) PROP(
 "#maeDesignPoint" 80
"#maeCorner" "nom"
 "#pointID" 80
"netlistDir" "../../../80/MC/netlist"
"dataDir" "../../../80/MC"
 "mcparamset" 8.000000e+01
)

"mcparamset=81.0" "runObject" (
(
"../../../81/MC/psf/logFile"
"../../../81/MC/psf/artistLogFile"
"../../../81/MC/psf/matlabLogFile"
)
"Root"
()
) PROP(
 "#maeDesignPoint" 81
"#maeCorner" "nom"
 "#pointID" 81
"netlistDir" "../../../81/MC/netlist"
"dataDir" "../../../81/MC"
 "mcparamset" 8.100000e+01
)

"mcparamset=82.0" "runObject" (
(
"../../../82/MC/psf/logFile"
"../../../82/MC/psf/artistLogFile"
"../../../82/MC/psf/matlabLogFile"
)
"Root"
()
) PROP(
 "#maeDesignPoint" 82
"#maeCorner" "nom"
 "#pointID" 82
"netlistDir" "../../../82/MC/netlist"
"dataDir" "../../../82/MC"
 "mcparamset" 8.200000e+01
)

"mcparamset=83.0" "runObject" (
(
"../../../83/MC/psf/logFile"
"../../../83/MC/psf/artistLogFile"
"../../../83/MC/psf/matlabLogFile"
)
"Root"
()
) PROP(
 "#maeDesignPoint" 83
"#maeCorner" "nom"
 "#pointID" 83
"netlistDir" "../../../83/MC/netlist"
"dataDir" "../../../83/MC"
 "mcparamset" 8.300000e+01
)

"mcparamset=84.0" "runObject" (
(
"../../../84/MC/psf/logFile"
"../../../84/MC/psf/artistLogFile"
"../../../84/MC/psf/matlabLogFile"
)
"Root"
()
) PROP(
 "#maeDesignPoint" 84
"#maeCorner" "nom"
 "#pointID" 84
"netlistDir" "../../../84/MC/netlist"
"dataDir" "../../../84/MC"
 "mcparamset" 8.400000e+01
)

"mcparamset=85.0" "runObject" (
(
"../../../85/MC/psf/logFile"
"../../../85/MC/psf/artistLogFile"
"../../../85/MC/psf/matlabLogFile"
)
"Root"
()
) PROP(
 "#maeDesignPoint" 85
"#maeCorner" "nom"
 "#pointID" 85
"netlistDir" "../../../85/MC/netlist"
"dataDir" "../../../85/MC"
 "mcparamset" 8.500000e+01
)

"mcparamset=86.0" "runObject" (
(
"../../../86/MC/psf/logFile"
"../../../86/MC/psf/artistLogFile"
"../../../86/MC/psf/matlabLogFile"
)
"Root"
()
) PROP(
 "#maeDesignPoint" 86
"#maeCorner" "nom"
 "#pointID" 86
"netlistDir" "../../../86/MC/netlist"
"dataDir" "../../../86/MC"
 "mcparamset" 8.600000e+01
)

"mcparamset=87.0" "runObject" (
(
"../../../87/MC/psf/logFile"
"../../../87/MC/psf/artistLogFile"
"../../../87/MC/psf/matlabLogFile"
)
"Root"
()
) PROP(
 "#maeDesignPoint" 87
"#maeCorner" "nom"
 "#pointID" 87
"netlistDir" "../../../87/MC/netlist"
"dataDir" "../../../87/MC"
 "mcparamset" 8.700000e+01
)

"mcparamset=88.0" "runObject" (
(
"../../../88/MC/psf/logFile"
"../../../88/MC/psf/artistLogFile"
"../../../88/MC/psf/matlabLogFile"
)
"Root"
()
) PROP(
 "#maeDesignPoint" 88
"#maeCorner" "nom"
 "#pointID" 88
"netlistDir" "../../../88/MC/netlist"
"dataDir" "../../../88/MC"
 "mcparamset" 8.800000e+01
)

"mcparamset=89.0" "runObject" (
(
"../../../89/MC/psf/logFile"
"../../../89/MC/psf/artistLogFile"
"../../../89/MC/psf/matlabLogFile"
)
"Root"
()
) PROP(
 "#maeDesignPoint" 89
"#maeCorner" "nom"
 "#pointID" 89
"netlistDir" "../../../89/MC/netlist"
"dataDir" "../../../89/MC"
 "mcparamset" 8.900000e+01
)

"mcparamset=90.0" "runObject" (
(
"../../../90/MC/psf/logFile"
"../../../90/MC/psf/artistLogFile"
"../../../90/MC/psf/matlabLogFile"
)
"Root"
()
) PROP(
 "#maeDesignPoint" 90
"#maeCorner" "nom"
 "#pointID" 90
"netlistDir" "../../../90/MC/netlist"
"dataDir" "../../../90/MC"
 "mcparamset" 9.000000e+01
)

"mcparamset=91.0" "runObject" (
(
"../../../91/MC/psf/logFile"
"../../../91/MC/psf/artistLogFile"
"../../../91/MC/psf/matlabLogFile"
)
"Root"
()
) PROP(
 "#maeDesignPoint" 91
"#maeCorner" "nom"
 "#pointID" 91
"netlistDir" "../../../91/MC/netlist"
"dataDir" "../../../91/MC"
 "mcparamset" 9.100000e+01
)

"mcparamset=92.0" "runObject" (
(
"../../../92/MC/psf/logFile"
"../../../92/MC/psf/artistLogFile"
"../../../92/MC/psf/matlabLogFile"
)
"Root"
()
) PROP(
 "#maeDesignPoint" 92
"#maeCorner" "nom"
 "#pointID" 92
"netlistDir" "../../../92/MC/netlist"
"dataDir" "../../../92/MC"
 "mcparamset" 9.200000e+01
)

"mcparamset=93.0" "runObject" (
(
"../../../93/MC/psf/logFile"
"../../../93/MC/psf/artistLogFile"
"../../../93/MC/psf/matlabLogFile"
)
"Root"
()
) PROP(
 "#maeDesignPoint" 93
"#maeCorner" "nom"
 "#pointID" 93
"netlistDir" "../../../93/MC/netlist"
"dataDir" "../../../93/MC"
 "mcparamset" 9.300000e+01
)

"mcparamset=94.0" "runObject" (
(
"../../../94/MC/psf/logFile"
"../../../94/MC/psf/artistLogFile"
"../../../94/MC/psf/matlabLogFile"
)
"Root"
()
) PROP(
 "#maeDesignPoint" 94
"#maeCorner" "nom"
 "#pointID" 94
"netlistDir" "../../../94/MC/netlist"
"dataDir" "../../../94/MC"
 "mcparamset" 9.400000e+01
)

"mcparamset=95.0" "runObject" (
(
"../../../95/MC/psf/logFile"
"../../../95/MC/psf/artistLogFile"
"../../../95/MC/psf/matlabLogFile"
)
"Root"
()
) PROP(
 "#maeDesignPoint" 95
"#maeCorner" "nom"
 "#pointID" 95
"netlistDir" "../../../95/MC/netlist"
"dataDir" "../../../95/MC"
 "mcparamset" 9.500000e+01
)

"mcparamset=96.0" "runObject" (
(
"../../../96/MC/psf/logFile"
"../../../96/MC/psf/artistLogFile"
"../../../96/MC/psf/matlabLogFile"
)
"Root"
()
) PROP(
 "#maeDesignPoint" 96
"#maeCorner" "nom"
 "#pointID" 96
"netlistDir" "../../../96/MC/netlist"
"dataDir" "../../../96/MC"
 "mcparamset" 9.600000e+01
)

"mcparamset=97.0" "runObject" (
(
"../../../97/MC/psf/logFile"
"../../../97/MC/psf/artistLogFile"
"../../../97/MC/psf/matlabLogFile"
)
"Root"
()
) PROP(
 "#maeDesignPoint" 97
"#maeCorner" "nom"
 "#pointID" 97
"netlistDir" "../../../97/MC/netlist"
"dataDir" "../../../97/MC"
 "mcparamset" 9.700000e+01
)

"mcparamset=98.0" "runObject" (
(
"../../../98/MC/psf/logFile"
"../../../98/MC/psf/artistLogFile"