HEADER
"PSFversion" "1.00"
"C1n" "PRIMLIB_pcapacitor_spectre"
"C0n" "PRIMLIB_cpoly_spectre"
"MINUSv" ":1v"
"PLUSv" ":2v"
"SUBv" ":3v"
