HEADER
"PSFversion" "1.00"
"V13n V12n V11n V5n V6n V4n V2n V1n" "analogLib_vdc_spectre"
"V7n V8n" "analogLib_vsin_spectre"
"V0n" "analogLib_vpulse_spectre"
"I15n I13n I9n I5n I3n I10n" "analogLib_idc_spectre"
"C0n" "analogLib_cap_spectre"
"I2n" "fecg_ia_3"
"I12n I8n I11n" "gmc_5"
"I4n" "fecg_vga1"
"R0n" "analogLib_res_spectre"
"I14n" "buffer2"
