HEADER
"PSFversion" "1.00"
"MP24n MP23n MP21n MP22n MP20n MP19n MP18n MP17n MP13n MP14n MP12n MP10n MP16n MP15n MP9n MP3n MP2n MP4n MP5n MP6n MP7n MP8n MP1n MP0n" "PRIMLIB_pmos4_spectre"
"MN23n MN24n MN25n MN26n MN22n MN21n MN17n MN16n MN15n MN14n MN13n MN11n MN10n MN9n MN18n MN20n MN19n MN7n MN6n MN3n MN8n MN2n MN4n MN5n MN1n MN0n" "PRIMLIB_nmos4_spectre"
"R1n R0n" "analogLib_res_spectre"
"V3n" "analogLib_vdc_spectre"
"I9n I8n" "chopper"
"C2n C1n C0n" "analogLib_cap_spectre"
"BIASv" ":1v"
"GNDAv" ":2v"
"VDDAv" ":3v"
"VINNv" ":4v"
"VINPv" ":5v"
"VOUTv" ":6v"
"CLKv" ":7v"
