HEADER
"PSFversion" "1.00"
"V5n V6n V4n V2n V1n" "analogLib_vdc_spectre"
"V7n V8n" "analogLib_vsin_spectre"
"V0n" "analogLib_vpulse_spectre"
"I5n I3n" "analogLib_idc_spectre"
"C0n" "analogLib_cap_spectre"
"I4n" "ecg_vga4"
"R0n" "analogLib_res_spectre"
"I2n" "ecg_ia8"
