HEADER
"PSFversion" "1.00"
"design" "(\"VGA\" \"VGA_1_pss_tb\" \"schematic\" \"\")"
"simulator" "spectre"
"temperature" "85"
"host" ""
"date" "Apr 15 13:21:43 2026"
"title" ""
"analysisList" "()"
END
