HEADER
"PSFversion" "1.00"
"__NEXT_FILE__" "VGA_1_wakeup_tb"
