HEADER
"PSFversion" "1.00"
"design" "(\"ECG_IA\" \"ecg_vga_tb\" \"schematic\" \"\")"
"simulator" "spectre"
"temperature" "27"
"host" ""
"date" "Mar 21 15:47:44 2026"
"title" ""
"analysisList" "()"
END
