HEADER
"PSFversion" "1.00"
"Run Generator" "drlRun rev. 1.0"
"Run Time Stamp" "Apr 15 12:40:09 2026"
"date" "Apr 15 12:40:09 2026"
"simulator" "spectre"
"netlistDir" "../netlist"
"axlParamFlag" "true"
"#maeHistoryName" "Interactive.4"
"#maeTestName" "VGA_VGA_1_pss_tb_1"
 "externalSweepVariableCount" 3
"axlDependentVarFlag" "true"
"paramName" "#maeCorner"
 "#maeCorner_num" 33
"#maeCorner_name_1" "nom"
"#maeCorner_name_2" "CMOS_CAP_VDD_TEMP_0"
"#maeCorner_name_3" "CMOS_CAP_VDD_TEMP_1"
"#maeCorner_name_4" "CMOS_CAP_VDD_TEMP_2"
"#maeCorner_name_5" "CMOS_CAP_VDD_TEMP_3"
"#maeCorner_name_6" "CMOS_CAP_VDD_TEMP_4"
"#maeCorner_name_7" "CMOS_CAP_VDD_TEMP_5"
"#maeCorner_name_8" "CMOS_CAP_VDD_TEMP_6"
"#maeCorner_name_9" "CMOS_CAP_VDD_TEMP_7"
"#maeCorner_name_10" "CMOS_CAP_VDD_TEMP_8"
"#maeCorner_name_11" "CMOS_CAP_VDD_TEMP_9"
"#maeCorner_name_12" "CMOS_CAP_VDD_TEMP_10"
"#maeCorner_name_13" "CMOS_CAP_VDD_TEMP_11"
"#maeCorner_name_14" "CMOS_CAP_VDD_TEMP_12"
"#maeCorner_name_15" "CMOS_CAP_VDD_TEMP_13"
"#maeCorner_name_16" "CMOS_CAP_VDD_TEMP_14"
"#maeCorner_name_17" "CMOS_CAP_VDD_TEMP_15"
"#maeCorner_name_18" "CMOS_CAP_VDD_TEMP_16"
"#maeCorner_name_19" "CMOS_CAP_VDD_TEMP_17"
"#maeCorner_name_20" "CMOS_CAP_VDD_TEMP_18"
"#maeCorner_name_21" "CMOS_CAP_VDD_TEMP_19"
"#maeCorner_name_22" "CMOS_CAP_VDD_TEMP_20"
"#maeCorner_name_23" "CMOS_CAP_VDD_TEMP_21"
"#maeCorner_name_24" "CMOS_CAP_VDD_TEMP_22"
"#maeCorner_name_25" "CMOS_CAP_VDD_TEMP_23"
"#maeCorner_name_26" "CMOS_CAP_VDD_TEMP_24"
"#maeCorner_name_27" "CMOS_CAP_VDD_TEMP_25"
"#maeCorner_name_28" "CMOS_CAP_VDD_TEMP_26"
"#maeCorner_name_29" "CMOS_CAP_VDD_TEMP_27"
"#maeCorner_name_30" "CMOS_CAP_VDD_TEMP_28"
"#maeCorner_name_31" "CMOS_CAP_VDD_TEMP_29"
"#maeCorner_name_32" "CMOS_CAP_VDD_TEMP_30"
"#maeCorner_name_33" "CMOS_CAP_VDD_TEMP_31"
 "#maeCorner_param_set_num" 3
"#maeCorner_param_name_1" "modelFiles"
"#maeCorner_param_name_2" "temperature"
"#maeCorner_param_name_3" "VDD"
TYPE
"runObject" STRUCT(
"logName" ARRAY( * ) STRING *
"parent" STRING *
"sweepVariable" ARRAY( * ) STRING *
) PROP( "key" "runObject" )
VALUE
"Root" "runObject" (
("")
""
("modelFiles")
)
"modelFiles=processOption.scs,cmos53.scs:cmoswz,res.scs:restm,cap.scs:capws,bip.scs:biptm,ind.scs:indtm,esddiode.scs:esddiodetm" "runObject" (
("")
"Root"
("temperature")
) PROP(
"modelFiles" "processOption.scs,cmos53.scs:cmoswz,res.scs:restm,cap.scs:capws,bip.scs:biptm,ind.scs:indtm,esddiode.scs:esddiodetm"
)

"modelFiles=processOption.scs,cmos53.scs:cmoswz,res.scs:restm,cap.scs:capws,bip.scs:biptm,ind.scs:indtm,esddiode.scs:esddiodetm,temperature=-40.0" "runObject" (
("")
"modelFiles=processOption.scs,cmos53.scs:cmoswz,res.scs:restm,cap.scs:capws,bip.scs:biptm,ind.scs:indtm,esddiode.scs:esddiodetm"
("VDD")
) PROP(
 "temperature" -4.000000e+01
)

"modelFiles=processOption.scs,cmos53.scs:cmoswz,res.scs:restm,cap.scs:capws,bip.scs:biptm,ind.scs:indtm,esddiode.scs:esddiodetm,temperature=-40.0,VDD=2.97" "runObject" (
(
"../../../30/VGA_VGA_1_pss_tb_1/psf/logFile"
"../../../30/VGA_VGA_1_pss_tb_1/psf/artistLogFile"
"../../../30/VGA_VGA_1_pss_tb_1/psf/matlabLogFile"
)
"modelFiles=processOption.scs,cmos53.scs:cmoswz,res.scs:restm,cap.scs:capws,bip.scs:biptm,ind.scs:indtm,esddiode.scs:esddiodetm,temperature=-40.0"
()
) PROP(
 "#maeDesignPoint" 1
"#maeCorner" "CMOS_CAP_VDD_TEMP_28"
 "#pointID" 30
"netlistDir" "../../../30/VGA_VGA_1_pss_tb_1/netlist"
"dataDir" "../../../30/VGA_VGA_1_pss_tb_1"
 "VDD" 2.970000e+00
)

"modelFiles=processOption.scs,cmos53.scs:cmosws,res.scs:restm,cap.scs:capws,bip.scs:biptm,ind.scs:indtm,esddiode.scs:esddiodetm" "runObject" (
("")
"Root"
("temperature")
) PROP(
"modelFiles" "processOption.scs,cmos53.scs:cmosws,res.scs:restm,cap.scs:capws,bip.scs:biptm,ind.scs:indtm,esddiode.scs:esddiodetm"
)

"modelFiles=processOption.scs,cmos53.scs:cmosws,res.scs:restm,cap.scs:capws,bip.scs:biptm,ind.scs:indtm,esddiode.scs:esddiodetm,temperature=-40.0" "runObject" (
("")
"modelFiles=processOption.scs,cmos53.scs:cmosws,res.scs:restm,cap.scs:capws,bip.scs:biptm,ind.scs:indtm,esddiode.scs:esddiodetm"
("VDD")
) PROP(
 "temperature" -4.000000e+01
)

"modelFiles=processOption.scs,cmos53.scs:cmosws,res.scs:restm,cap.scs:capws,bip.scs:biptm,ind.scs:indtm,esddiode.scs:esddiodetm,temperature=-40.0,VDD=2.97" "runObject" (
(
"../../../26/VGA_VGA_1_pss_tb_1/psf/logFile"
"../../../26/VGA_VGA_1_pss_tb_1/psf/artistLogFile"
"../../../26/VGA_VGA_1_pss_tb_1/psf/matlabLogFile"
)
"modelFiles=processOption.scs,cmos53.scs:cmosws,res.scs:restm,cap.scs:capws,bip.scs:biptm,ind.scs:indtm,esddiode.scs:esddiodetm,temperature=-40.0"
()
) PROP(
 "#maeDesignPoint" 1
"#maeCorner" "CMOS_CAP_VDD_TEMP_24"
 "#pointID" 26
"netlistDir" "../../../26/VGA_VGA_1_pss_tb_1/netlist"
"dataDir" "../../../26/VGA_VGA_1_pss_tb_1"
 "VDD" 2.970000e+00
)

"modelFiles=processOption.scs,cmos53.scs:cmoswp,res.scs:restm,cap.scs:capws,bip.scs:biptm,ind.scs:indtm,esddiode.scs:esddiodetm" "runObject" (
("")
"Root"
("temperature")
) PROP(
"modelFiles" "processOption.scs,cmos53.scs:cmoswp,res.scs:restm,cap.scs:capws,bip.scs:biptm,ind.scs:indtm,esddiode.scs:esddiodetm"
)

"modelFiles=processOption.scs,cmos53.scs:cmoswp,res.scs:restm,cap.scs:capws,bip.scs:biptm,ind.scs:indtm,esddiode.scs:esddiodetm,temperature=-40.0" "runObject" (
("")
"modelFiles=processOption.scs,cmos53.scs:cmoswp,res.scs:restm,cap.scs:capws,bip.scs:biptm,ind.scs:indtm,esddiode.scs:esddiodetm"
("VDD")
) PROP(
 "temperature" -4.000000e+01
)

"modelFiles=processOption.scs,cmos53.scs:cmoswp,res.scs:restm,cap.scs:capws,bip.scs:biptm,ind.scs:indtm,esddiode.scs:esddiodetm,temperature=-40.0,VDD=2.97" "runObject" (
(
"../../../22/VGA_VGA_1_pss_tb_1/psf/logFile"
"../../../22/VGA_VGA_1_pss_tb_1/psf/artistLogFile"
"../../../22/VGA_VGA_1_pss_tb_1/psf/matlabLogFile"
)
"modelFiles=processOption.scs,cmos53.scs:cmoswp,res.scs:restm,cap.scs:capws,bip.scs:biptm,ind.scs:indtm,esddiode.scs:esddiodetm,temperature=-40.0"
()
) PROP(
 "#maeDesignPoint" 1
"#maeCorner" "CMOS_CAP_VDD_TEMP_20"
 "#pointID" 22
"netlistDir" "../../../22/VGA_VGA_1_pss_tb_1/netlist"
"dataDir" "../../../22/VGA_VGA_1_pss_tb_1"
 "VDD" 2.970000e+00
)

"modelFiles=processOption.scs,cmos53.scs:cmoswo,res.scs:restm,cap.scs:capws,bip.scs:biptm,ind.scs:indtm,esddiode.scs:esddiodetm" "runObject" (
("")
"Root"
("temperature")
) PROP(
"modelFiles" "processOption.scs,cmos53.scs:cmoswo,res.scs:restm,cap.scs:capws,bip.scs:biptm,ind.scs:indtm,esddiode.scs:esddiodetm"
)

"modelFiles=processOption.scs,cmos53.scs:cmoswo,res.scs:restm,cap.scs:capws,bip.scs:biptm,ind.scs:indtm,esddiode.scs:esddiodetm,temperature=-40.0" "runObject" (
("")
"modelFiles=processOption.scs,cmos53.scs:cmoswo,res.scs:restm,cap.scs:capws,bip.scs:biptm,ind.scs:indtm,esddiode.scs:esddiodetm"
("VDD")
) PROP(
 "temperature" -4.000000e+01
)

"modelFiles=processOption.scs,cmos53.scs:cmoswo,res.scs:restm,cap.scs:capws,bip.scs:biptm,ind.scs:indtm,esddiode.scs:esddiodetm,temperature=-40.0,VDD=2.97" "runObject" (
(
"../../../18/VGA_VGA_1_pss_tb_1/psf/logFile"
"../../../18/VGA_VGA_1_pss_tb_1/psf/artistLogFile"
"../../../18/VGA_VGA_1_pss_tb_1/psf/matlabLogFile"
)
"modelFiles=processOption.scs,cmos53.scs:cmoswo,res.scs:restm,cap.scs:capws,bip.scs:biptm,ind.scs:indtm,esddiode.scs:esddiodetm,temperature=-40.0"
()
) PROP(
 "#maeDesignPoint" 1
"#maeCorner" "CMOS_CAP_VDD_TEMP_16"
 "#pointID" 18
"netlistDir" "../../../18/VGA_VGA_1_pss_tb_1/netlist"
"dataDir" "../../../18/VGA_VGA_1_pss_tb_1"
 "VDD" 2.970000e+00
)

"modelFiles=processOption.scs,cmos53.scs:cmoswz,res.scs:restm,cap.scs:capwp,bip.scs:biptm,ind.scs:indtm,esddiode.scs:esddiodetm" "runObject" (
("")
"Root"
("temperature")
) PROP(
"modelFiles" "processOption.scs,cmos53.scs:cmoswz,res.scs:restm,cap.scs:capwp,bip.scs:biptm,ind.scs:indtm,esddiode.scs:esddiodetm"
)

"modelFiles=processOption.scs,cmos53.scs:cmoswz,res.scs:restm,cap.scs:capwp,bip.scs:biptm,ind.scs:indtm,esddiode.scs:esddiodetm,temperature=-40.0" "runObject" (
("")
"modelFiles=processOption.scs,cmos53.scs:cmoswz,res.scs:restm,cap.scs:capwp,bip.scs:biptm,ind.scs:indtm,esddiode.scs:esddiodetm"
("VDD")
) PROP(
 "temperature" -4.000000e+01
)

"modelFiles=processOption.scs,cmos53.scs:cmoswz,res.scs:restm,cap.scs:capwp,bip.scs:biptm,ind.scs:indtm,esddiode.scs:esddiodetm,temperature=-40.0,VDD=2.97" "runObject" (
(
"../../../14/VGA_VGA_1_pss_tb_1/psf/logFile"
"../../../14/VGA_VGA_1_pss_tb_1/psf/artistLogFile"
"../../../14/VGA_VGA_1_pss_tb_1/psf/matlabLogFile"
)
"modelFiles=processOption.scs,cmos53.scs:cmoswz,res.scs:restm,cap.scs:capwp,bip.scs:biptm,ind.scs:indtm,esddiode.scs:esddiodetm,temperature=-40.0"
()
) PROP(
 "#maeDesignPoint" 1
"#maeCorner" "CMOS_CAP_VDD_TEMP_12"
 "#pointID" 14
"netlistDir" "../../../14/VGA_VGA_1_pss_tb_1/netlist"
"dataDir" "../../../14/VGA_VGA_1_pss_tb_1"
 "VDD" 2.970000e+00
)

"modelFiles=processOption.scs,cmos53.scs:cmosws,res.scs:restm,cap.scs:capwp,bip.scs:biptm,ind.scs:indtm,esddiode.scs:esddiodetm" "runObject" (
("")
"Root"
("temperature")
) PROP(
"modelFiles" "processOption.scs,cmos53.scs:cmosws,res.scs:restm,cap.scs:capwp,bip.scs:biptm,ind.scs:indtm,esddiode.scs:esddiodetm"
)

"modelFiles=processOption.scs,cmos53.scs:cmosws,res.scs:restm,cap.scs:capwp,bip.scs:biptm,ind.scs:indtm,esddiode.scs:esddiodetm,temperature=-40.0" "runObject" (
("")
"modelFiles=processOption.scs,cmos53.scs:cmosws,res.scs:restm,cap.scs:capwp,bip.scs:biptm,ind.scs:indtm,esddiode.scs:esddiodetm"
("VDD")
) PROP(
 "temperature" -4.000000e+01
)

"modelFiles=processOption.scs,cmos53.scs:cmosws,res.scs:restm,cap.scs:capwp,bip.scs:biptm,ind.scs:indtm,esddiode.scs:esddiodetm,temperature=-40.0,VDD=2.97" "runObject" (
(
"../../../10/VGA_VGA_1_pss_tb_1/psf/logFile"
"../../../10/VGA_VGA_1_pss_tb_1/psf/artistLogFile"
"../../../10/VGA_VGA_1_pss_tb_1/psf/matlabLogFile"
)
"modelFiles=processOption.scs,cmos53.scs:cmosws,res.scs:restm,cap.scs:capwp,bip.scs:biptm,ind.scs:indtm,esddiode.scs:esddiodetm,temperature=-40.0"
()
) PROP(
 "#maeDesignPoint" 1
"#maeCorner" "CMOS_CAP_VDD_TEMP_8"
 "#pointID" 10
"netlistDir" "../../../10/VGA_VGA_1_pss_tb_1/netlist"
"dataDir" "../../../10/VGA_VGA_1_pss_tb_1"
 "VDD" 2.970000e+00
)

"modelFiles=processOption.scs,cmos53.scs:cmoswp,res.scs:restm,cap.scs:capwp,bip.scs:biptm,ind.scs:indtm,esddiode.scs:esddiodetm" "runObject" (
("")
"Root"
("temperature")
) PROP(
"modelFiles" "processOption.scs,cmos53.scs:cmoswp,res.scs:restm,cap.scs:capwp,bip.scs:biptm,ind.scs:indtm,esddiode.scs:esddiodetm"
)

"modelFiles=processOption.scs,cmos53.scs:cmoswp,res.scs:restm,cap.scs:capwp,bip.scs:biptm,ind.scs:indtm,esddiode.scs:esddiodetm,temperature=-40.0" "runObject" (
("")
"modelFiles=processOption.scs,cmos53.scs:cmoswp,res.scs:restm,cap.scs:capwp,bip.scs:biptm,ind.scs:indtm,esddiode.scs:esddiodetm"
("VDD")
) PROP(
 "temperature" -4.000000e+01
)

"modelFiles=processOption.scs,cmos53.scs:cmoswp,res.scs:restm,cap.scs:capwp,bip.scs:biptm,ind.scs:indtm,esddiode.scs:esddiodetm,temperature=-40.0,VDD=2.97" "runObject" (
(
"../../../6/VGA_VGA_1_pss_tb_1/psf/logFile"
"../../../6/VGA_VGA_1_pss_tb_1/psf/artistLogFile"
"../../../6/VGA_VGA_1_pss_tb_1/psf/matlabLogFile"
)
"modelFiles=processOption.scs,cmos53.scs:cmoswp,res.scs:restm,cap.scs:capwp,bip.scs:biptm,ind.scs:indtm,esddiode.scs:esddiodetm,temperature=-40.0"
()
) PROP(
 "#maeDesignPoint" 1
"#maeCorner" "CMOS_CAP_VDD_TEMP_4"
 "#pointID" 6
"netlistDir" "../../../6/VGA_VGA_1_pss_tb_1/netlist"
"dataDir" "../../../6/VGA_VGA_1_pss_tb_1"
 "VDD" 2.970000e+00
)

"modelFiles=processOption.scs,cmos53.scs:cmoswo,res.scs:restm,cap.scs:capwp,bip.scs:biptm,ind.scs:indtm,esddiode.scs:esddiodetm" "runObject" (
("")
"Root"
("temperature")
) PROP(
"modelFiles" "processOption.scs,cmos53.scs:cmoswo,res.scs:restm,cap.scs:capwp,bip.scs:biptm,ind.scs:indtm,esddiode.scs:esddiodetm"
)

"modelFiles=processOption.scs,cmos53.scs:cmoswo,res.scs:restm,cap.scs:capwp,bip.scs:biptm,ind.scs:indtm,esddiode.scs:esddiodetm,temperature=-40.0" "runObject" (
("")
"modelFiles=processOption.scs,cmos53.scs:cmoswo,res.scs:restm,cap.scs:capwp,bip.scs:biptm,ind.scs:indtm,esddiode.scs:esddiodetm"
("VDD")
) PROP(
 "temperature" -4.000000e+01
)

"modelFiles=processOption.scs,cmos53.scs:cmoswo,res.scs:restm,cap.scs:capwp,bip.scs:biptm,ind.scs:indtm,esddiode.scs:esddiodetm,temperature=-40.0,VDD=2.97" "runObject" (
(
"../../../2/VGA_VGA_1_pss_tb_1/psf/logFile"
"../../../2/VGA_VGA_1_pss_tb_1/psf/artistLogFile"
"../../../2/VGA_VGA_1_pss_tb_1/psf/matlabLogFile"
)
"modelFiles=processOption.scs,cmos53.scs:cmoswo,res.scs:restm,cap.scs:capwp,bip.scs:biptm,ind.scs:indtm,esddiode.scs:esddiodetm,temperature=-40.0"
()
) PROP(
 "#maeDesignPoint" 1
"#maeCorner" "CMOS_CAP_VDD_TEMP_0"
 "#pointID" 2
"netlistDir" "../../../2/VGA_VGA_1_pss_tb_1/netlist"
"dataDir" "../../../2/VGA_VGA_1_pss_tb_1"
 "VDD" 2.970000e+00
)

"modelFiles=processOption.scs,cmos53.scs:cmoswz,res.scs:restm,cap.scs:capws,bip.scs:biptm,ind.scs:indtm,esddiode.scs:esddiodetm,temperature=85.0" "runObject" (
("")
"modelFiles=processOption.scs,cmos53.scs:cmoswz,res.scs:restm,cap.scs:capws,bip.scs:biptm,ind.scs:indtm,esddiode.scs:esddiodetm"
("VDD")
) PROP(
 "temperature" 8.500000e+01
)

"modelFiles=processOption.scs,cmos53.scs:cmoswz,res.scs:restm,cap.scs:capws,bip.scs:biptm,ind.scs:indtm,esddiode.scs:esddiodetm,temperature=85.0,VDD=2.97" "runObject" (
(
"../../../31/VGA_VGA_1_pss_tb_1/psf/logFile"
"../../../31/VGA_VGA_1_pss_tb_1/psf/artistLogFile"
"../../../31/VGA_VGA_1_pss_tb_1/psf/matlabLogFile"
)
"modelFiles=processOption.scs,cmos53.scs:cmoswz,res.scs:restm,cap.scs:capws,bip.scs:biptm,ind.scs:indtm,esddiode.scs:esddiodetm,temperature=85.0"
()
) PROP(
 "#maeDesignPoint" 1
"#maeCorner" "CMOS_CAP_VDD_TEMP_29"
 "#pointID" 31
"netlistDir" "../../../31/VGA_VGA_1_pss_tb_1/netlist"
"dataDir" "../../../31/VGA_VGA_1_pss_tb_1"
 "VDD" 2.970000e+00
)

"modelFiles=processOption.scs,cmos53.scs:cmosws,res.scs:restm,cap.scs:capws,bip.scs:biptm,ind.scs:indtm,esddiode.scs:esddiodetm,temperature=85.0" "runObject" (
("")
"modelFiles=processOption.scs,cmos53.scs:cmosws,res.scs:restm,cap.scs:capws,bip.scs:biptm,ind.scs:indtm,esddiode.scs:esddiodetm"
("VDD")
) PROP(
 "temperature" 8.500000e+01
)

"modelFiles=processOption.scs,cmos53.scs:cmosws,res.scs:restm,cap.scs:capws,bip.scs:biptm,ind.scs:indtm,esddiode.scs:esddiodetm,temperature=85.0,VDD=2.97" "runObject" (
(
"../../../27/VGA_VGA_1_pss_tb_1/psf/logFile"
"../../../27/VGA_VGA_1_pss_tb_1/psf/artistLogFile"
"../../../27/VGA_VGA_1_pss_tb_1/psf/matlabLogFile"
)
"modelFiles=processOption.scs,cmos53.scs:cmosws,res.scs:restm,cap.scs:capws,bip.scs:biptm,ind.scs:indtm,esddiode.scs:esddiodetm,temperature=85.0"
()
) PROP(
 "#maeDesignPoint" 1
"#maeCorner" "CMOS_CAP_VDD_TEMP_25"
 "#pointID" 27
"netlistDir" "../../../27/VGA_VGA_1_pss_tb_1/netlist"
"dataDir" "../../../27/VGA_VGA_1_pss_tb_1"
 "VDD" 2.970000e+00
)

"modelFiles=processOption.scs,cmos53.scs:cmoswp,res.scs:restm,cap.scs:capws,bip.scs:biptm,ind.scs:indtm,esddiode.scs:esddiodetm,temperature=85.0" "runObject" (
("")
"modelFiles=processOption.scs,cmos53.scs:cmoswp,res.scs:restm,cap.scs:capws,bip.scs:biptm,ind.scs:indtm,esddiode.scs:esddiodetm"
("VDD")
) PROP(
 "temperature" 8.500000e+01
)

"modelFiles=processOption.scs,cmos53.scs:cmoswp,res.scs:restm,cap.scs:capws,bip.scs:biptm,ind.scs:indtm,esddiode.scs:esddiodetm,temperature=85.0,VDD=2.97" "runObject" (
(
"../../../23/VGA_VGA_1_pss_tb_1/psf/logFile"
"../../../23/VGA_VGA_1_pss_tb_1/psf/artistLogFile"
"../../../23/VGA_VGA_1_pss_tb_1/psf/matlabLogFile"
)
"modelFiles=processOption.scs,cmos53.scs:cmoswp,res.scs:restm,cap.scs:capws,bip.scs:biptm,ind.scs:indtm,esddiode.scs:esddiodetm,temperature=85.0"
()
) PROP(
 "#maeDesignPoint" 1
"#maeCorner" "CMOS_CAP_VDD_TEMP_21"
 "#pointID" 23
"netlistDir" "../../../23/VGA_VGA_1_pss_tb_1/netlist"
"dataDir" "../../../23/VGA_VGA_1_pss_tb_1"
 "VDD" 2.970000e+00
)

"modelFiles=processOption.scs,cmos53.scs:cmoswo,res.scs:restm,cap.scs:capws,bip.scs:biptm,ind.scs:indtm,esddiode.scs:esddiodetm,temperature=85.0" "runObject" (
("")
"modelFiles=processOption.scs,cmos53.scs:cmoswo,res.scs:restm,cap.scs:capws,bip.scs:biptm,ind.scs:indtm,esddiode.scs:esddiodetm"
("VDD")
) PROP(
 "temperature" 8.500000e+01
)

"modelFiles=processOption.scs,cmos53.scs:cmoswo,res.scs:restm,cap.scs:capws,bip.scs:biptm,ind.scs:indtm,esddiode.scs:esddiodetm,temperature=85.0,VDD=2.97" "runObject" (
(
"../../../19/VGA_VGA_1_pss_tb_1/psf/logFile"
"../../../19/VGA_VGA_1_pss_tb_1/psf/artistLogFile"
"../../../19/VGA_VGA_1_pss_tb_1/psf/matlabLogFile"
)
"modelFiles=processOption.scs,cmos53.scs:cmoswo,res.scs:restm,cap.scs:capws,bip.scs:biptm,ind.scs:indtm,esddiode.scs:esddiodetm,temperature=85.0"
()
) PROP(
 "#maeDesignPoint" 1
"#maeCorner" "CMOS_CAP_VDD_TEMP_17"
 "#pointID" 19
"netlistDir" "../../../19/VGA_VGA_1_pss_tb_1/netlist"
"dataDir" "../../../19/VGA_VGA_1_pss_tb_1"
 "VDD" 2.970000e+00
)

"modelFiles=processOption.scs,cmos53.scs:cmoswz,res.scs:restm,cap.scs:capwp,bip.scs:biptm,ind.scs:indtm,esddiode.scs:esddiodetm,temperature=85.0" "runObject" (
("")
"modelFiles=processOption.scs,cmos53.scs:cmoswz,res.scs:restm,cap.scs:capwp,bip.scs:biptm,ind.scs:indtm,esddiode.scs:esddiodetm"
("VDD")
) PROP(
 "temperature" 8.500000e+01
)

"modelFiles=processOption.scs,cmos53.scs:cmoswz,res.scs:restm,cap.scs:capwp,bip.scs:biptm,ind.scs:indtm,esddiode.scs:esddiodetm,temperature=85.0,VDD=2.97" "runObject" (
(
"../../../15/VGA_VGA_1_pss_tb_1/psf/logFile"
"../../../15/VGA_VGA_1_pss_tb_1/psf/artistLogFile"
"../../../15/VGA_VGA_1_pss_tb_1/psf/matlabLogFile"
)
"modelFiles=processOption.scs,cmos53.scs:cmoswz,res.scs:restm,cap.scs:capwp,bip.scs:biptm,ind.scs:indtm,esddiode.scs:esddiodetm,temperature=85.0"
()
) PROP(
 "#maeDesignPoint" 1
"#maeCorner" "CMOS_CAP_VDD_TEMP_13"
 "#pointID" 15
"netlistDir" "../../../15/VGA_VGA_1_pss_tb_1/netlist"
"dataDir" "../../../15/VGA_VGA_1_pss_tb_1"
 "VDD" 2.970000e+00
)

"modelFiles=processOption.scs,cmos53.scs:cmosws,res.scs:restm,cap.scs:capwp,bip.scs:biptm,ind.scs:indtm,esddiode.scs:esddiodetm,temperature=85.0" "runObject" (
("")
"modelFiles=processOption.scs,cmos53.scs:cmosws,res.scs:restm,cap.scs:capwp,bip.scs:biptm,ind.scs:indtm,esddiode.scs:esddiodetm"
("VDD")
) PROP(
 "temperature" 8.500000e+01
)

"modelFiles=processOption.scs,cmos53.scs:cmosws,res.scs:restm,cap.scs:capwp,bip.scs:biptm,ind.scs:indtm,esddiode.scs:esddiodetm,temperature=85.0,VDD=2.97" "runObject" (
(
"../../../11/VGA_VGA_1_pss_tb_1/psf/logFile"
"../../../11/VGA_VGA_1_pss_tb_1/psf/artistLogFile"
"../../../11/VGA_VGA_1_pss_tb_1/psf/matlabLogFile"
)
"modelFiles=processOption.scs,cmos53.scs:cmosws,res.scs:restm,cap.scs:capwp,bip.scs:biptm,ind.scs:indtm,esddiode.scs:esddiodetm,temperature=85.0"
()
) PROP(
 "#maeDesignPoint" 1
"#maeCorner" "CMOS_CAP_VDD_TEMP_9"
 "#pointID" 11
"netlistDir" "../../../11/VGA_VGA_1_pss_tb_1/netlist"
"dataDir" "../../../11/VGA_VGA_1_pss_tb_1"
 "VDD" 2.970000e+00
)

"modelFiles=processOption.scs,cmos53.scs:cmoswp,res.scs:restm,cap.scs:capwp,bip.scs:biptm,ind.scs:indtm,esddiode.scs:esddiodetm,temperature=85.0" "runObject" (
("")
"modelFiles=processOption.scs,cmos53.scs:cmoswp,res.scs:restm,cap.scs:capwp,bip.scs:biptm,ind.scs:indtm,esddiode.scs:esddiodetm"
("VDD")
) PROP(
 "temperature" 8.500000e+01
)

"modelFiles=processOption.scs,cmos53.scs:cmoswp,res.scs:restm,cap.scs:capwp,bip.scs:biptm,ind.scs:indtm,esddiode.scs:esddiodetm,temperature=85.0,VDD=2.97" "runObject" (
(
"../../../7/VGA_VGA_1_pss_tb_1/psf/logFile"
"../../../7/VGA_VGA_1_pss_tb_1/psf/artistLogFile"
"../../../7/VGA_VGA_1_pss_tb_1/psf/matlabLogFile"
)
"modelFiles=processOption.scs,cmos53.scs:cmoswp,res.scs:restm,cap.scs:capwp,bip.scs:biptm,ind.scs:indtm,esddiode.scs:esddiodetm,temperature=85.0"
()
) PROP(
 "#maeDesignPoint" 1
"#maeCorner" "CMOS_CAP_VDD_TEMP_5"
 "#pointID" 7
"netlistDir" "../../../7/VGA_VGA_1_pss_tb_1/netlist"
"dataDir" "../../../7/VGA_VGA_1_pss_tb_1"
 "VDD" 2.970000e+00
)

"modelFiles=processOption.scs,cmos53.scs:cmoswo,res.scs:restm,cap.scs:capwp,bip.scs:biptm,ind.scs:indtm,esddiode.scs:esddiodetm,temperature=85.0" "runObject" (
("")
"modelFiles=processOption.scs,cmos53.scs:cmoswo,res.scs:restm,cap.scs:capwp,bip.scs:biptm,ind.scs:indtm,esddiode.scs:esddiodetm"
("VDD")
) PROP(
 "temperature" 8.500000e+01
)

"modelFiles=processOption.scs,cmos53.scs:cmoswo,res.scs:restm,cap.scs:capwp,bip.scs:biptm,ind.scs:indtm,esddiode.scs:esddiodetm,temperature=85.0,VDD=2.97" "runObject" (
(
"../../../3/VGA_VGA_1_pss_tb_1/psf/logFile"
"../../../3/VGA_VGA_1_pss_tb_1/psf/artistLogFile"
"../../../3/VGA_VGA_1_pss_tb_1/psf/matlabLogFile"
)
"modelFiles=processOption.scs,cmos53.scs:cmoswo,res.scs:restm,cap.scs:capwp,bip.scs:biptm,ind.scs:indtm,esddiode.scs:esddiodetm,temperature=85.0"
()
) PROP(
 "#maeDesignPoint" 1
"#maeCorner" "CMOS_CAP_VDD_TEMP_1"
 "#pointID" 3
"netlistDir" "../../../3/VGA_VGA_1_pss_tb_1/netlist"
"dataDir" "../../../3/VGA_VGA_1_pss_tb_1"
 "VDD" 2.970000e+00
)

"modelFiles=processOption.scs,cmos53.scs:cmostm,res.scs:restm,cap.scs:captm,bip.scs:biptm,ind.scs:indtm,esddiode.scs:esddiodetm" "runObject" (
("")
"Root"
("temperature")
) PROP(
"modelFiles" "processOption.scs,cmos53.scs:cmostm,res.scs:restm,cap.scs:captm,bip.scs:biptm,ind.scs:indtm,esddiode.scs:esddiodetm"
)

"modelFiles=processOption.scs,cmos53.scs:cmostm,res.scs:restm,cap.scs:captm,bip.scs:biptm,ind.scs:indtm,esddiode.scs:esddiodetm,temperature=27.0" "runObject" (
("")
"modelFiles=processOption.scs,cmos53.scs:cmostm,res.scs:restm,cap.scs:captm,bip.scs:biptm,ind.scs:indtm,esddiode.scs:esddiodetm"
("VDD")
) PROP(
 "temperature" 2.700000e+01
)

"modelFiles=processOption.scs,cmos53.scs:cmostm,res.scs:restm,cap.scs:captm,bip.scs:biptm,ind.scs:indtm,esddiode.scs:esddiodetm,temperature=27.0,VDD=3.3" "runObject" (
(
"../../../1/VGA_VGA_1_pss_tb_1/psf/logFile"
"../../../1/VGA_VGA_1_pss_tb_1/psf/artistLogFile"
"../../../1/VGA_VGA_1_pss_tb_1/psf/matlabLogFile"
)
"modelFiles=processOption.scs,cmos53.scs:cmostm,res.scs:restm,cap.scs:captm,bip.scs:biptm,ind.scs:indtm,esddiode.scs:esddiodetm,temperature=27.0"
()
) PROP(
 "#maeDesignPoint" 1
"#maeCorner" "nom"
 "#pointID" 1
"netlistDir" "../../../1/VGA_VGA_1_pss_tb_1/netlist"
"dataDir" "../../../1/VGA_VGA_1_pss_tb_1"
 "VDD" 3.300000e+00
)

"modelFiles=processOption.scs,cmos53.scs:cmoswz,res.scs:restm,cap.scs:capws,bip.scs:biptm,ind.scs:indtm,esddiode.scs:esddiodetm,temperature=-40.0,VDD=3.63" "runObject" (
(
"../../../32/VGA_VGA_1_pss_tb_1/psf/logFile"
"../../../32/VGA_VGA_1_pss_tb_1/psf/artistLogFile"
"../../../32/VGA_VGA_1_pss_tb_1/psf/matlabLogFile"
)
"modelFiles=processOption.scs,cmos53.scs:cmoswz,res.scs:restm,cap.scs:capws,bip.scs:biptm,ind.scs:indtm,esddiode.scs:esddiodetm,temperature=-40.0"
()
) PROP(
 "#maeDesignPoint" 1
"#maeCorner" "CMOS_CAP_VDD_TEMP_30"
 "#pointID" 32
"netlistDir" "../../../32/VGA_VGA_1_pss_tb_1/netlist"
"dataDir" "../../../32/VGA_VGA_1_pss_tb_1"
 "VDD" 3.630000e+00
)

"modelFiles=processOption.scs,cmos53.scs:cmosws,res.scs:restm,cap.scs:capws,bip.scs:biptm,ind.scs:indtm,esddiode.scs:esddiodetm,temperature=-40.0,VDD=3.63" "runObject" (
(
"../../../28/VGA_VGA_1_pss_tb_1/psf/logFile"
"../../../28/VGA_VGA_1_pss_tb_1/psf/artistLogFile"
"../../../28/VGA_VGA_1_pss_tb_1/psf/matlabLogFile"
)
"modelFiles=processOption.scs,cmos53.scs:cmosws,res.scs:restm,cap.scs:capws,bip.scs:biptm,ind.scs:indtm,esddiode.scs:esddiodetm,temperature=-40.0"
()
) PROP(
 "#maeDesignPoint" 1
"#maeCorner" "CMOS_CAP_VDD_TEMP_26"
 "#pointID" 28
"netlistDir" "../../../28/VGA_VGA_1_pss_tb_1/netlist"
"dataDir" "../../../28/VGA_VGA_1_pss_tb_1"
 "VDD" 3.630000e+00
)

"modelFiles=processOption.scs,cmos53.scs:cmoswp,res.scs:restm,cap.scs:capws,bip.scs:biptm,ind.scs:indtm,esddiode.scs:esddiodetm,temperature=-40.0,VDD=3.63" "runObject" (
(
"../../../24/VGA_VGA_1_pss_tb_1/psf/logFile"
"../../../24/VGA_VGA_1_pss_tb_1/psf/artistLogFile"
"../../../24/VGA_VGA_1_pss_tb_1/psf/matlabLogFile"
)
"modelFiles=processOption.scs,cmos53.scs:cmoswp,res.scs:restm,cap.scs:capws,bip.scs:biptm,ind.scs:indtm,esddiode.scs:esddiodetm,temperature=-40.0"
()
) PROP(
 "#maeDesignPoint" 1
"#maeCorner" "CMOS_CAP_VDD_TEMP_22"
 "#pointID" 24
"netlistDir" "../../../24/VGA_VGA_1_pss_tb_1/netlist"
"dataDir" "../../../24/VGA_VGA_1_pss_tb_1"
 "VDD" 3.630000e+00
)

"modelFiles=processOption.scs,cmos53.scs:cmoswo,res.scs:restm,cap.scs:capws,bip.scs:biptm,ind.scs:indtm,esddiode.scs:esddiodetm,temperature=-40.0,VDD=3.63" "runObject" (
(
"../../../20/VGA_VGA_1_pss_tb_1/psf/logFile"
"../../../20/VGA_VGA_1_pss_tb_1/psf/artistLogFile"
"../../../20/VGA_VGA_1_pss_tb_1/psf/matlabLogFile"
)
"modelFiles=processOption.scs,cmos53.scs:cmoswo,res.scs:restm,cap.scs:capws,bip.scs:biptm,ind.scs:indtm,esddiode.scs:esddiodetm,temperature=-40.0"
()
) PROP(
 "#maeDesignPoint" 1
"#maeCorner" "CMOS_CAP_VDD_TEMP_18"
 "#pointID" 20
"netlistDir" "../../../20/VGA_VGA_1_pss_tb_1/netlist"
"dataDir" "../../../20/VGA_VGA_1_pss_tb_1"
 "VDD" 3.630000e+00
)

"modelFiles=processOption.scs,cmos53.scs:cmoswz,res.scs:restm,cap.scs:capwp,bip.scs:biptm,ind.scs:indtm,esddiode.scs:esddiodetm,temperature=-40.0,VDD=3.63" "runObject" (
(
"../../../16/VGA_VGA_1_pss_tb_1/psf/logFile"
"../../../16/VGA_VGA_1_pss_tb_1/psf/artistLogFile"
"../../../16/VGA_VGA_1_pss_tb_1/psf/matlabLogFile"
)
"modelFiles=processOption.scs,cmos53.scs:cmoswz,res.scs:restm,cap.scs:capwp,bip.scs:biptm,ind.scs:indtm,esddiode.scs:esddiodetm,temperature=-40.0"
()
) PROP(
 "#maeDesignPoint" 1
"#maeCorner" "CMOS_CAP_VDD_TEMP_14"
 "#pointID" 16
"netlistDir" "../../../16/VGA_VGA_1_pss_tb_1/netlist"
"dataDir" "../../../16/VGA_VGA_1_pss_tb_1"
 "VDD" 3.630000e+00
)

"modelFiles=processOption.scs,cmos53.scs:cmosws,res.scs:restm,cap.scs:capwp,bip.scs:biptm,ind.scs:indtm,esddiode.scs:esddiodetm,temperature=-40.0,VDD=3.63" "runObject" (
(
"../../../12/VGA_VGA_1_pss_tb_1/psf/logFile"
"../../../12/VGA_VGA_1_pss_tb_1/psf/artistLogFile"
"../../../12/VGA_VGA_1_pss_tb_1/psf/matlabLogFile"
)
"modelFiles=processOption.scs,cmos53.scs:cmosws,res.scs:restm,cap.scs:capwp,bip.scs:biptm,ind.scs:indtm,esddiode.scs:esddiodetm,temperature=-40.0"
()
) PROP(
 "#maeDesignPoint" 1
"#maeCorner" "CMOS_CAP_VDD_TEMP_10"
 "#pointID" 12
"netlistDir" "../../../12/VGA_VGA_1_pss_tb_1/netlist"
"dataDir" "../../../12/VGA_VGA_1_pss_tb_1"
 "VDD" 3.630000e+00
)

"modelFiles=processOption.scs,cmos53.scs:cmoswp,res.scs:restm,cap.scs:capwp,bip.scs:biptm,ind.scs:indtm,esddiode.scs:esddiodetm,temperature=-40.0,VDD=3.63" "runObject" (
(
"../../../8/VGA_VGA_1_pss_tb_1/psf/logFile"
"../../../8/VGA_VGA_1_pss_tb_1/psf/artistLogFile"
"../../../8/VGA_VGA_1_pss_tb_1/psf/matlabLogFile"
)
"modelFiles=processOption.scs,cmos53.scs:cmoswp,res.scs:restm,cap.scs:capwp,bip.scs:biptm,ind.scs:indtm,esddiode.scs:esddiodetm,temperature=-40.0"
()
) PROP(
 "#maeDesignPoint" 1
"#maeCorner" "CMOS_CAP_VDD_TEMP_6"
 "#pointID" 8
"netlistDir" "../../../8/VGA_VGA_1_pss_tb_1/netlist"
"dataDir" "../../../8/VGA_VGA_1_pss_tb_1"
 "VDD" 3.630000e+00
)

"modelFiles=processOption.scs,cmos53.scs:cmoswo,res.scs:restm,cap.scs:capwp,bip.scs:biptm,ind.scs:indtm,esddiode.scs:esddiodetm,temperature=-40.0,VDD=3.63" "runObject" (
(
"../../../4/VGA_VGA_1_pss_tb_1/psf/logFile"
"../../../4/VGA_VGA_1_pss_tb_1/psf/artistLogFile"
"../../../4/VGA_VGA_1_pss_tb_1/psf/matlabLogFile"
)
"modelFiles=processOption.scs,cmos53.scs:cmoswo,res.scs:restm,cap.scs:capwp,bip.scs:biptm,ind.scs:indtm,esddiode.scs:esddiodetm,temperature=-40.0"
()
) PROP(
 "#maeDesignPoint" 1
"#maeCorner" "CMOS_CAP_VDD_TEMP_2"
 "#pointID" 4
"netlistDir" "../../../4/VGA_VGA_1_pss_tb_1/netlist"
"dataDir" "../../../4/VGA_VGA_1_pss_tb_1"
 "VDD" 3.630000e+00
)

"modelFiles=processOption.scs,cmos53.scs:cmoswz,res.scs:restm,cap.scs:capws,bip.scs:biptm,ind.scs:indtm,esddiode.scs:esddiodetm,temperature=85.0,VDD=3.63" "runObject" (
(
"../../../33/VGA_VGA_1_pss_tb_1/psf/logFile"
"../../../33/VGA_VGA_1_pss_tb_1/psf/artistLogFile"
"../../../33/VGA_VGA_1_pss_tb_1/psf/matlabLogFile"
)
"modelFiles=processOption.scs,cmos53.scs:cmoswz,res.scs:restm,cap.scs:capws,bip.scs:biptm,ind.scs:indtm,esddiode.scs:esddiodetm,temperature=85.0"
()
) PROP(
 "#maeDesignPoint" 1
"#maeCorner" "CMOS_CAP_VDD_TEMP_31"
 "#pointID" 33
"netlistDir" "../../../33/VGA_VGA_1_pss_tb_1/netlist"
"dataDir" "../../../33/VGA_VGA_1_pss_tb_1"
 "VDD" 3.630000e+00
)

"modelFiles=processOption.scs,cmos53.scs:cmosws,res.scs:restm,cap.scs:capws,bip.scs:biptm,ind.scs:indtm,esddiode.scs:esddiodetm,temperature=85.0,VDD=3.63" "runObject" (
(
"../../../29/VGA_VGA_1_pss_tb_1/psf/logFile"
"../../../29/VGA_VGA_1_pss_tb_1/psf/artistLogFile"
"../../../29/VGA_VGA_1_pss_tb_1/psf/matlabLogFile"
)
"modelFiles=processOption.scs,cmos53.scs:cmosws,res.scs:restm,cap.scs:capws,bip.scs:biptm,ind.scs:indtm,esddiode.scs:esddiodetm,temperature=85.0"
()
) PROP(
 "#maeDesignPoint" 1
"#maeCorner" "CMOS_CAP_VDD_TEMP_27"
 "#pointID" 29
"netlistDir" "../../../29/VGA_VGA_1_pss_tb_1/netlist"
"dataDir" "../../../29/VGA_VGA_1_pss_tb_1"
 "VDD" 3.630000e+00
)

"modelFiles=processOption.scs,cmos53.scs:cmoswp,res.scs:restm,cap.scs:capws,bip.scs:biptm,ind.scs:indtm,esddiode.scs:esddiodetm,temperature=85.0,VDD=3.63" "runObject" (
(
"../../../25/VGA_VGA_1_pss_tb_1/psf/logFile"
"../../../25/VGA_VGA_1_pss_tb_1/psf/artistLogFile"
"../../../25/VGA_VGA_1_pss_tb_1/psf/matlabLogFile"
)
"modelFiles=processOption.scs,cmos53.scs:cmoswp,res.scs:restm,cap.scs:capws,bip.scs:biptm,ind.scs:indtm,esddiode.scs:esddiodetm,temperature=85.0"
()
) PROP(
 "#maeDesignPoint" 1
"#maeCorner" "CMOS_CAP_VDD_TEMP_23"
 "#pointID" 25
"netlistDir" "../../../25/VGA_VGA_1_pss_tb_1/netlist"
"dataDir" "../../../25/VGA_VGA_1_pss_tb_1"
 "VDD" 3.630000e+00
)

"modelFiles=processOption.scs,cmos53.scs:cmoswo,res.scs:restm,cap.scs:capws,bip.scs:biptm,ind.scs:indtm,esddiode.scs:esddiodetm,temperature=85.0,VDD=3.63" "runObject" (
(
"../../../21/VGA_VGA_1_pss_tb_1/psf/logFile"
"../../../21/VGA_VGA_1_pss_tb_1/psf/artistLogFile"
"../../../21/VGA_VGA_1_pss_tb_1/psf/matlabLogFile"
)
"modelFiles=processOption.scs,cmos53.scs:cmoswo,res.scs:restm,cap.scs:capws,bip.scs:biptm,ind.scs:indtm,esddiode.scs:esddiodetm,temperature=85.0"
()
) PROP(
 "#maeDesignPoint" 1
"#maeCorner" "CMOS_CAP_VDD_TEMP_19"
 "#pointID" 21